/*--------------------------------*- C++ -*----------------------------------*\
| =========                 |                                                 |
| \\      /  F ield         | foam-extend: Open Source CFD                    |
|  \\    /   O peration     | Version:     4.1                                |
|   \\  /    A nd           | Web:         http://www.foam-extend.org         |
|    \\/     M anipulation  |                                                 |
\*---------------------------------------------------------------------------*/
FoamFile
{
    version     2.0;
    format      ascii;
    class       volScalarField;
    location    "0.9";
    object      alpha1;
}
// * * * * * * * * * * * * * * * * * * * * * * * * * * * * * * * * * * * * * //

dimensions      [0 0 0 0 0 0 0];

internalField   nonuniform List<scalar> 
96000
(
0.999999767737
0.999999782163
0.999999781424
0.999999780384
0.999999696591
0.999999499766
0.999999305985
0.999999138434
0.999999005693
0.999998915955
0.999998837459
0.999998723591
0.99999868321
0.9999987211
0.999998756191
0.999998755924
0.999998760363
0.999998778498
0.999998769173
0.999998731576
0.999998732504
0.999998757087
0.999998753383
0.999998754931
0.999998771046
0.999998786092
0.999998799126
0.999998800008
0.999998784656
0.999998766869
0.99999876438
0.999998754487
0.999998705391
0.999998694158
0.99999878313
0.999998810211
0.999998776412
0.999998717225
0.999998791367
0.999999058574
0.999999800759
0.999999814857
0.999999856861
0.999999843608
0.999999726526
0.999999530182
0.999999325188
0.999999154247
0.999999030325
0.999998941286
0.9999988718
0.999998826248
0.999998804198
0.999998803263
0.99999881342
0.999998826011
0.999998833991
0.999998836008
0.9999988352
0.999998834975
0.999998835996
0.999998840445
0.999998850193
0.999998863386
0.999998878101
0.999998890693
0.999998896823
0.999998897306
0.99999888881
0.99999887122
0.999998851947
0.999998845209
0.999998860324
0.999998888114
0.999998912154
0.999998911703
0.999998873889
0.99999879537
0.999998807846
0.999999105337
0.999999846337
0.999999915143
0.999999997684
1.00000000381
0.999999907711
0.999999734596
0.999999547666
0.999999393483
0.999999284264
0.999999208476
0.999999155676
0.99999912486
0.999999114554
0.999999119976
0.9999991328
0.99999914512
0.999999152488
0.999999155469
0.999999157201
0.999999160164
0.99999916472
0.999999172557
0.999999184684
0.999999198861
0.999999212909
0.999999224826
0.999999231811
0.999999230921
0.999999220988
0.999999203693
0.999999185762
0.999999176808
0.99999918887
0.999999214096
0.999999227702
0.999999214918
0.999999164051
0.999999058167
0.999998958805
0.999999236447
0.999999910914
0.999999985748
1.0000000929
1.00000013113
1.00000005729
0.999999910048
0.999999737807
0.999999593995
0.999999494701
0.999999431739
0.999999392076
0.999999371608
0.999999370297
0.999999383005
0.999999400454
0.999999415306
0.999999424117
0.99999942821
0.999999430637
0.999999434112
0.999999440292
0.999999449895
0.999999462367
0.999999476309
0.999999490021
0.999999500833
0.999999506087
0.999999503308
0.999999490962
0.999999470658
0.999999449545
0.999999438103
0.999999448484
0.999999473208
0.999999486165
0.99999946931
0.999999408965
0.999999284504
0.999999162299
0.999999371133
0.999999936685
0.999999979982
1.000000103
1.00000016609
1.00000011556
0.999999968701
0.999999811451
0.999999676087
0.999999587767
0.999999537057
0.999999507609
0.999999494063
0.999999497757
0.999999515934
0.999999539201
0.999999557473
0.999999567864
0.999999573351
0.999999576947
0.999999581023
0.999999588087
0.999999599441
0.999999613766
0.999999629995
0.999999646489
0.999999660827
0.999999669823
0.999999669005
0.999999659008
0.999999641025
0.999999620934
0.999999612367
0.999999626937
0.999999657251
0.999999678814
0.999999626944
0.999999504139
0.999999348764
0.999999301054
0.99999938068
0.99999984107
0.999999907042
1.0000000471
1.00000012288
1.00000007812
0.999999936506
0.999999768683
0.999999631096
0.999999541519
0.999999494154
0.999999469523
0.999999456139
0.999999457765
0.999999477077
0.999999505022
0.999999525859
0.999999535981
0.999999538373
0.999999537058
0.999999534124
0.99999953309
0.999999539661
0.999999551122
0.999999564459
0.999999579259
0.999999592789
0.999999602918
0.999999601079
0.99999958103
0.999999545536
0.999999504633
0.99999947726
0.999999484713
0.999999521474
0.999999550787
0.99999951559
0.999999392618
0.999999211223
0.999999086575
0.99999925311
0.999999717841
0.999999816446
0.999999973226
1.00000005326
1.00000000948
0.999999866129
0.999999692
0.999999549146
0.999999456939
0.99999940914
0.999999383043
0.999999363423
0.999999369049
0.999999387912
0.999999408355
0.999999428553
0.999999436165
0.999999430097
0.99999942123
0.999999424349
0.999999433429
0.999999441577
0.999999447373
0.999999452154
0.999999453097
0.999999451092
0.999999445915
0.999999442273
0.999999420992
0.999999376921
0.999999321523
0.99999926881
0.999999259942
0.999999316543
0.999999370827
0.999999342613
0.999999228241
0.99999903744
0.999998823358
0.99999911994
0.999999664206
0.999999738942
0.999999907549
0.99999998956
0.999999948515
0.999999805316
0.999999629989
0.999999485652
0.999999399981
0.99999935257
0.999999324459
0.99999933013
0.999999349972
0.999999366122
0.999999375955
0.999999383472
0.999999389902
0.99999939476
0.999999395622
0.999999398462
0.999999409806
0.999999417693
0.999999421278
0.999999423788
0.999999421986
0.999999410614
0.999999387721
0.999999361529
0.999999324124
0.999999271489
0.999999219089
0.999999188299
0.999999176622
0.999999192304
0.999999222595
0.999999201398
0.999999103267
0.999998917987
0.999998691679
0.999999041433
0.999999600201
0.999999671318
0.999999844033
0.999999934534
0.999999899435
0.999999757596
0.999999587048
0.999999447852
0.999999368115
0.999999328007
0.99999930361
0.999999314005
0.999999341567
0.999999364472
0.999999376644
0.999999383264
0.999999390363
0.999999401401
0.999999409421
0.999999411422
0.999999417551
0.999999421791
0.999999426544
0.999999431801
0.999999437364
0.999999436222
0.999999417492
0.999999381633
0.999999335924
0.999999281648
0.999999228452
0.99999920712
0.999999209365
0.99999920435
0.999999184578
0.999999167045
0.999999072328
0.999998887968
0.999998782783
0.999999029071
0.99999951993
0.999999596248
0.999999773845
0.999999877121
0.999999849326
0.999999710896
0.999999546859
0.999999414483
0.999999338055
0.99999930762
0.999999295572
0.999999295488
0.99999931687
0.999999346143
0.999999373121
0.999999394079
0.999999401975
0.999999398783
0.999999408169
0.999999421549
0.999999425641
0.999999428081
0.999999434382
0.999999440699
0.999999444853
0.999999450622
0.999999449733
0.999999417573
0.999999374067
0.999999319888
0.999999253852
0.999999213883
0.999999212824
0.999999219399
0.999999221691
0.999999198758
0.999999084653
0.999998902376
0.999998887085
0.999999051384
0.999999455505
0.999999507544
0.999999692612
0.999999811277
0.999999791916
0.999999658143
0.999999498459
0.999999370301
0.999999297629
0.999999274125
0.999999273967
0.999999278025
0.999999293217
0.999999325178
0.999999363209
0.999999393669
0.999999407725
0.999999404479
0.99999940317
0.99999941126
0.999999417388
0.999999422912
0.99999943007
0.999999438808
0.999999442301
0.999999441943
0.999999440875
0.999999429937
0.999999397459
0.999999338132
0.999999262956
0.999999202287
0.999999187618
0.999999210551
0.999999265342
0.999999209739
0.999999077362
0.999998891878
0.999998731321
0.999999043621
0.999999368672
0.999999407898
0.999999607479
0.999999740872
0.999999731774
0.999999602847
0.999999445649
0.999999318328
0.999999249163
0.999999233258
0.999999235215
0.999999245067
0.999999268061
0.999999305338
0.999999343929
0.999999372865
0.99999938898
0.999999395024
0.999999391049
0.999999388008
0.999999391963
0.999999401331
0.999999412334
0.999999421767
0.999999426166
0.999999422415
0.999999410172
0.999999401721
0.999999372347
0.999999317364
0.999999242596
0.999999168008
0.999999167598
0.999999211747
0.999999223569
0.999999163363
0.999999033913
0.999998842004
0.999998584722
0.999999003526
0.999999261671
0.999999311078
0.999999527281
0.999999674571
0.999999676412
0.99999955225
0.999999397252
0.999999270814
0.999999204517
0.999999193025
0.999999199226
0.9999992144
0.999999243319
0.999999282803
0.999999321185
0.99999934578
0.999999357122
0.999999365722
0.999999369723
0.999999367015
0.999999366531
0.999999377373
0.999999391212
0.999999394578
0.999999395568
0.999999391781
0.999999374789
0.999999353274
0.999999315293
0.999999251416
0.999999179024
0.99999913371
0.999999108393
0.99999915049
0.999999132758
0.999999081063
0.999998962867
0.999998766575
0.999998579496
0.999998948288
0.999999165963
0.999999225874
0.999999456041
0.999999615932
0.999999629936
0.99999950969
0.99999935734
0.999999232576
0.999999169401
0.999999164108
0.999999177309
0.999999197382
0.999999228072
0.999999266538
0.999999303572
0.99999933038
0.999999344302
0.9999993509
0.999999352822
0.999999352486
0.999999357097
0.999999364578
0.999999367603
0.999999369421
0.999999370087
0.99999935674
0.999999341343
0.999999322766
0.99999927099
0.999999183594
0.999999124373
0.999999098244
0.999999006413
0.999999022549
0.99999905734
0.999999020018
0.999998896097
0.999998689639
0.999998618509
0.999998884977
0.999999089733
0.99999915116
0.999999392066
0.999999563592
0.99999959123
0.999999472836
0.99999932339
0.999999200379
0.999999141682
0.999999145431
0.999999163976
0.999999186286
0.999999218313
0.999999255157
0.999999291334
0.999999327364
0.999999349294
0.999999347784
0.999999339781
0.999999339531
0.999999353366
0.99999935805
0.999999350265
0.999999359535
0.99999936598
0.999999348018
0.999999333958
0.999999307361
0.999999249145
0.999999179471
0.999999121876
0.999999015729
0.999998970395
0.999998962129
0.999999030124
0.999998994055
0.999998852628
0.999998632433
0.999998602848
0.999998834637
0.999999023692
0.999999081832
0.999999331506
0.999999513862
0.999999555636
0.999999437349
0.999999290331
0.999999168843
0.999999115001
0.999999125366
0.999999148033
0.999999171242
0.999999203204
0.999999243556
0.99999928322
0.99999931763
0.999999337678
0.999999335456
0.999999330336
0.999999331714
0.999999339286
0.999999348315
0.999999356734
0.999999356471
0.999999350851
0.999999369312
0.999999366128
0.999999303896
0.999999237955
0.999999206782
0.999999118282
0.99999895751
0.999998975622
0.999998990439
0.999999049721
0.99999897519
0.999998828115
0.999998603054
0.999998489953
0.999998830264
0.999998957799
0.999999014115
0.999999271909
0.999999464115
0.999999519503
0.999999400755
0.99999925508
0.999999134669
0.999999084121
0.999999099054
0.999999125164
0.9999991494
0.999999181521
0.999999226551
0.999999269362
0.999999293548
0.9999993085
0.999999314596
0.999999318018
0.999999321481
0.999999319271
0.999999333458
0.99999935909
0.999999341108
0.999999318505
0.999999346744
0.999999348646
0.999999307349
0.999999238267
0.999999194692
0.999999065226
0.999998953589
0.999998979302
0.999999026716
0.999999029245
0.999998940503
0.999998818919
0.99999859629
0.999998387739
0.999998836319
0.999998890965
0.999998948045
0.999999213307
0.999999414321
0.99999948314
0.999999363522
0.99999921822
0.999999097695
0.999999049508
0.999999069176
0.999999098082
0.999999124996
0.99999915769
0.99999919884
0.999999244054
0.999999274956
0.999999283518
0.999999288323
0.999999296083
0.999999303131
0.999999304373
0.999999311512
0.999999323333
0.999999326635
0.999999320815
0.999999278999
0.999999245154
0.999999258781
0.99999926608
0.999999148858
0.999998949927
0.99999896824
0.999999005147
0.999999008728
0.99999895122
0.999998919947
0.999998814939
0.999998595815
0.999998429828
0.999998833202
0.999998829979
0.999998885603
0.999999157029
0.999999366021
0.999999448763
0.999999327812
0.999999182577
0.999999060111
0.999999014896
0.999999040926
0.99999907169
0.999999099716
0.999999133694
0.999999172629
0.999999217941
0.999999257418
0.999999266706
0.999999270279
0.999999279741
0.999999281612
0.99999928489
0.999999289136
0.999999290889
0.999999326025
0.999999335204
0.999999249203
0.9999991637
0.999999187531
0.999999245379
0.999999073392
0.999998926226
0.999999012953
0.999999004818
0.999998948392
0.999998940597
0.999998975599
0.999998799065
0.999998566543
0.999998649611
0.999998802076
0.999998776878
0.999998826387
0.999999103709
0.999999320495
0.999999418134
0.999999295631
0.999999150913
0.999999024593
0.999998982341
0.999999017794
0.999999053666
0.999999076483
0.999999110971
0.999999159874
0.999999200264
0.999999229243
0.999999255897
0.999999270493
0.999999271596
0.999999266764
0.999999273765
0.99999929558
0.999999306413
0.999999301417
0.999999292831
0.999999287251
0.999999243835
0.999999205611
0.999999176341
0.999999059026
0.999998991989
0.999998998212
0.99999897446
0.999998923529
0.999998976974
0.999998968239
0.999998771535
0.999998516036
0.999998433669
0.999998757163
0.999998722138
0.999998769176
0.999999054219
0.99999927894
0.999999392355
0.999999267936
0.999999123791
0.999998995219
0.999998955575
0.999998996185
0.999999039176
0.99999906281
0.999999097697
0.999999147162
0.999999184957
0.999999217028
0.9999992579
0.999999268521
0.999999255134
0.999999261612
0.99999930025
0.999999334999
0.999999317419
0.999999256368
0.999999242283
0.999999349225
0.999999376051
0.999999230087
0.999999136825
0.999999173288
0.999999032881
0.999998883909
0.999998947981
0.999998976092
0.99999890736
0.999998817733
0.999998712711
0.99999848587
0.999998327899
0.99999878656
0.99999865982
0.999998717007
0.99999900985
0.999999242008
0.999999371407
0.999999244558
0.999999099969
0.999998971198
0.999998934966
0.99999898011
0.999999023469
0.999999053397
0.999999090324
0.999999128622
0.999999176353
0.999999231981
0.999999258454
0.999999250635
0.99999924933
0.999999283782
0.99999934176
0.999999339993
0.999999293462
0.999999268531
0.999999304464
0.999999351135
0.999999343579
0.999999271818
0.999999174404
0.99999907461
0.999998987033
0.999998929488
0.999998881766
0.999998988253
0.999998927605
0.999998693683
0.999998675082
0.999998513701
0.999998322307
0.99999888378
0.999998601505
0.999998672377
0.999998970194
0.999999208885
0.999999353679
0.999999224615
0.99999907888
0.99999894866
0.999998916332
0.999998968363
0.999999011137
0.999999040988
0.99999907605
0.99999911762
0.999999178922
0.999999234118
0.999999242029
0.999999241863
0.999999276406
0.999999331287
0.999999326053
0.999999282846
0.999999291741
0.999999413995
0.999999439457
0.99999927967
0.999999207148
0.999999382575
0.999999293376
0.999998924467
0.999998915921
0.999999092347
0.999998882722
0.999998911731
0.999999067888
0.99999894849
0.999998761901
0.999998514278
0.999998317723
0.999998830691
0.999998568017
0.999998633392
0.999998933146
0.999999178566
0.999999337907
0.999999207009
0.999999059788
0.999998927845
0.999998896898
0.999998951812
0.999999002045
0.999999028286
0.999999058224
0.999999113574
0.99999917748
0.99999921049
0.999999224048
0.999999260584
0.999999315567
0.999999325245
0.999999272885
0.999999251296
0.999999387742
0.999999466111
0.999999417364
0.99999918205
0.99999914962
0.999999389045
0.999999382575
0.999999205177
0.999999008212
0.999998963418
0.999999044005
0.999998855751
0.999998849454
0.99999903923
0.999998900428
0.999998462705
0.999998370209
0.999998528556
0.999998545904
0.9999985959
0.99999889845
0.999999150622
0.999999323919
0.999999191089
0.999999042564
0.99999890877
0.999998874382
0.99999893292
0.999998995635
0.999999017501
0.999999042484
0.999999103281
0.999999161353
0.999999192202
0.999999227191
0.999999281385
0.999999303856
0.999999271386
0.999999245582
0.999999356406
0.999999477892
0.999999427275
0.999999250573
0.999999284104
0.999999352381
0.999999215153
0.999999193025
0.999999259994
0.999999212374
0.999998742205
0.99999890253
0.999998770413
0.999998657115
0.999998932656
0.999998812793
0.999998498986
0.999998873772
0.999998870119
0.999998511272
0.99999855894
0.99999886643
0.999999124514
0.999999312818
0.9999991768
0.999999026963
0.99999889114
0.999998853925
0.999998918859
0.999998982746
0.999999004344
0.99999903743
0.999999090392
0.999999136945
0.999999190099
0.999999244036
0.999999268744
0.999999262392
0.999999243002
0.999999322518
0.99999947989
0.999999451364
0.999999215071
0.999999239275
0.999999465483
0.999999433528
0.999999019191
0.999998898017
0.999999250466
0.999999179055
0.999998858982
0.99999867878
0.999998721639
0.999998819337
0.999998552722
0.999998512573
0.99999877802
0.999998774741
0.999998998832
0.999998467752
0.999998525492
0.999998835791
0.999999099313
0.999999305021
0.999999163709
0.999999011091
0.999998874171
0.999998842521
0.999998910278
0.999998966423
0.999998991095
0.999999032497
0.999999076906
0.99999912184
0.99999919312
0.999999258452
0.999999245474
0.999999236287
0.999999313634
0.999999489976
0.999999452304
0.999999263722
0.999999279288
0.999999479211
0.999999441993
0.999999271017
0.999999058605
0.999999193899
0.999998880866
0.999998845558
0.999998961808
0.999998857984
0.999998952032
0.999998952837
0.999998826758
0.999998522178
0.999998416486
0.999998312724
0.999998925113
0.999998446812
0.999998494052
0.99999880408
0.999999074002
0.999999294852
0.999999149694
0.999998992583
0.99999885455
0.999998834957
0.999998899747
0.999998954029
0.999998983338
0.99999901536
0.999999056287
0.999999121834
0.999999202043
0.999999251345
0.999999244411
0.999999267488
0.999999442928
0.999999495401
0.999999329707
0.99999932685
0.999999522162
0.999999496932
0.99999910826
0.999999056068
0.999999388176
0.999999390564
0.9999992052
0.999998717727
0.999998958493
0.999998831141
0.99999881165
0.999998889185
0.999998885325
0.999998828083
0.999998314324
0.999998309407
0.999998708321
0.999998431149
0.999998457806
0.999998769978
0.999999047262
0.999999274896
0.999999130168
0.999998968914
0.999998830634
0.999998812054
0.999998874321
0.999998935383
0.999998965548
0.999998986093
0.999999037798
0.999999123713
0.999999182753
0.999999201582
0.999999273042
0.999999376574
0.999999365248
0.999999330508
0.999999486032
0.99999954293
0.999999530709
0.999999265547
0.999999094605
0.999999369311
0.999999392643
0.999999388732
0.999999322823
0.999998951961
0.999998615519
0.999998537529
0.999998487817
0.999998466378
0.999998673965
0.999998757247
0.999998392054
0.999998357543
0.999998654033
0.99999837029
0.999998417073
0.99999873531
0.99999901794
0.999999245731
0.999999101585
0.999998935718
0.999998798403
0.999998771449
0.999998828598
0.999998892008
0.999998924284
0.999998953854
0.999999016413
0.999999077571
0.99999911091
0.999999178687
0.999999294089
0.999999297327
0.99999921011
0.999999348152
0.999999526758
0.999999533111
0.999999301878
0.999999210315
0.999999422946
0.999999362065
0.999999023788
0.999998916166
0.999999158274
0.999998923595
0.999998305309
0.999998084566
0.99999799176
0.999998167887
0.999998449198
0.999998402289
0.999998370855
0.999998507985
0.99999873076
0.999998264106
0.999998379187
0.999998702252
0.999998987434
0.999999215138
0.999999068895
0.999998894465
0.999998748407
0.999998725353
0.999998779946
0.999998837581
0.999998874214
0.999998908548
0.999998952319
0.999998989912
0.99999905993
0.99999917552
0.999999193697
0.999999133316
0.9999992499
0.999999461652
0.999999463324
0.999999261851
0.999999258701
0.999999442429
0.999999431867
0.999999110908
0.999998778593
0.999998840373
0.999998773719
0.99999853762
0.99999823665
0.999998027054
0.999997738222
0.999997955301
0.999998256982
0.999998223297
0.999998215764
0.999998395657
0.999998734695
0.999998248677
0.999998346737
0.999998670629
0.99999896142
0.999999195726
0.999999044567
0.999998864006
0.999998700803
0.999998676159
0.999998738123
0.999998798819
0.999998831021
0.999998848549
0.999998880187
0.999998953724
0.99999904938
0.99999909677
0.999999110776
0.999999177998
0.999999304162
0.999999452822
0.999999314915
0.999999131049
0.999999273333
0.999999435737
0.999999210499
0.999998860371
0.999998797373
0.999998703342
0.999998366103
0.999998106725
0.999998146385
0.999997900557
0.999997808496
0.999998063162
0.999997900309
0.999998014043
0.999998087745
0.999998241392
0.999998645006
0.999998294193
0.999998341752
0.999998646562
0.999998946427
0.999999204983
0.999999040399
0.999998861531
0.999998693054
0.999998636623
0.999998712922
0.999998795948
0.999998812488
0.999998823522
0.999998880105
0.999998971312
0.999999028711
0.999999050367
0.999999162641
0.99999933295
0.999999319273
0.999999248354
0.999999355425
0.999999313334
0.999999252112
0.999999212826
0.999999096646
0.999998870623
0.999998583626
0.999998298961
0.999998222861
0.999998121803
0.999997772397
0.999997552045
0.999998009046
0.999997882017
0.999997641053
0.999997856043
0.999998036305
0.999998147683
0.999998579558
0.999998293386
0.999998332805
0.999998635242
0.999998943925
0.999999220435
0.999999052333
0.999998874455
0.999998713667
0.999998651399
0.999998726793
0.999998807421
0.999998818043
0.999998841123
0.999998910237
0.999998983342
0.999999048543
0.999999113597
0.99999917956
0.999999274792
0.999999421452
0.999999413512
0.999999241587
0.999999251934
0.999999429048
0.999999359017
0.999999030306
0.99999878354
0.999998442992
0.999998031983
0.999998075263
0.999998008473
0.999997433991
0.999997387048
0.999997809296
0.999997467869
0.999997682012
0.999997961089
0.999997966452
0.99999815461
0.999998582721
0.999998263622
0.99999830979
0.999998618491
0.99999893745
0.999999180044
0.999999048378
0.999998873647
0.999998732621
0.999998678217
0.999998720965
0.999998783035
0.999998821396
0.999998853672
0.999998906434
0.999998973206
0.999999062498
0.999999165022
0.999999202573
0.999999220144
0.999999391305
0.999999500413
0.999999303152
0.99999924971
0.999999430559
0.999999407506
0.999999002748
0.999998673429
0.999998482559
0.999998118389
0.999997848973
0.999997729969
0.999997367975
0.99999719449
0.999997167584
0.999997435308
0.999997888984
0.999998060371
0.999998023977
0.999998215503
0.99999861911
0.999998232211
0.999998272344
0.999998572803
0.99999890048
0.999999070389
0.99999897233
0.999998815525
0.999998684592
0.999998632478
0.999998666513
0.999998720661
0.999998764048
0.999998798818
0.999998849136
0.99999892891
0.999999023734
0.999999108627
0.999999178483
0.999999252503
0.999999320916
0.999999317145
0.999999330769
0.999999455127
0.999999360231
0.99999921168
0.999998962394
0.999998646545
0.999998498476
0.999998333694
0.999997983555
0.999997477976
0.999997308618
0.999997227711
0.999997248363
0.999997719887
0.999998006346
0.999998102382
0.999998180282
0.999998244163
0.999998630724
0.999998202332
0.99999818092
0.999998486613
0.999998810084
0.999998912091
0.999998817386
0.999998674668
0.99999855509
0.9999985149
0.999998550239
0.999998597964
0.999998631363
0.999998665098
0.999998727089
0.99999881353
0.999998896209
0.999998985487
0.999999099968
0.999999184724
0.999999183024
0.999999158906
0.999999269195
0.999999413575
0.999999231045
0.999998942657
0.999998749508
0.99999861815
0.999998419926
0.99999819208
0.999997905196
0.999997394548
0.999997226737
0.999997240456
0.999997597561
0.999997891079
0.999997923613
0.999998038769
0.99999804986
0.99999817661
0.999998626799
0.999998008443
0.999998028833
0.999998336855
0.999998650865
0.999998725523
0.999998603912
0.999998448321
0.999998324436
0.999998290754
0.999998320011
0.99999836118
0.999998388785
0.999998418123
0.999998485481
0.999998572665
0.999998671542
0.999998812995
0.999998927516
0.999998940767
0.999998939499
0.999999009589
0.999999137455
0.999999174807
0.999999068775
0.999998836147
0.999998546597
0.999998310572
0.999998119184
0.999997761556
0.999997304093
0.999997244889
0.999997311257
0.99999723528
0.999997247277
0.999997411743
0.999997622502
0.999997710516
0.99999772046
0.999998033771
0.999998466796
0.999998199795
0.999998128172
0.999998203537
0.999998529273
0.99999865411
0.99999847107
0.999998301837
0.999998146926
0.999998032096
0.999998054842
0.999998143232
0.999998261526
0.999998386818
0.999998443892
0.999998501713
0.999998689458
0.999998863547
0.999998727642
0.999998680552
0.999998867149
0.999999135456
0.999999243236
0.999999058439
0.999999012222
0.999998898557
0.999998638926
0.999998291725
0.999997979155
0.999997739282
0.999997505781
0.999997534198
0.999997531796
0.999997381669
0.999997303971
0.999997361624
0.999997635237
0.999997858562
0.999997888358
0.999997934349
0.999998457434
0.999998580422
0.999998552137
0.999998680715
0.999998861671
0.999998885208
0.99999878024
0.999998665772
0.999998604326
0.999998613937
0.999998637712
0.999998666593
0.999998687721
0.999998724818
0.999998794181
0.999998847731
0.999998927581
0.999999079767
0.999999168917
0.999999157424
0.999999164319
0.99999931574
0.99999941004
0.999999373911
0.999999261544
0.999999102982
0.999998931618
0.999998740941
0.999998513542
0.999998326429
0.999998296533
0.999998142168
0.999997862987
0.999997917591
0.999998034141
0.999998127951
0.999998251469
0.99999838064
0.999998402071
0.999998430813
0.999998947279
0.999999775493
0.999999753495
0.999999787784
0.999999759812
0.999999639453
0.999999445792
0.999999247741
0.999999076829
0.999998946927
0.999998857771
0.999998786518
0.999998716334
0.999998687156
0.999998708155
0.999998727842
0.999998736752
0.999998741566
0.999998746213
0.999998753295
0.999998751538
0.999998744359
0.999998758607
0.999998780153
0.999998795235
0.999998808888
0.99999882168
0.99999883052
0.999998830574
0.999998823342
0.999998818049
0.999998811705
0.999998787716
0.999998771993
0.999998811438
0.999998848126
0.999998861488
0.999998844368
0.999998805026
0.999998842403
0.999999147379
0.99999977728
0.99999984146
0.999999886812
0.999999850827
0.999999723105
0.999999535117
0.999999344288
0.99999918869
0.999999076749
0.999998995984
0.999998937219
0.999998900543
0.999998886209
0.999998889756
0.999998903407
0.999998917951
0.999998928214
0.999998934315
0.999998938413
0.999998942803
0.999998948643
0.999998957215
0.999998970722
0.999998987399
0.999999004392
0.999999019201
0.999999029183
0.999999031373
0.999999025718
0.999999014868
0.999999004427
0.999999007294
0.999999031169
0.999999063302
0.999999086942
0.999999084196
0.999999054844
0.999998995549
0.999998948351
0.999999195137
0.999999866868
0.999999948618
1.00000002217
1.00000001378
0.999999915127
0.999999754737
0.999999587179
0.999999452289
0.99999935691
0.999999291174
0.999999247645
0.999999225321
0.999999222828
0.99999923417
0.999999250995
0.999999266479
0.999999277297
0.999999284234
0.999999289824
0.999999296443
0.999999305484
0.99999931744
0.99999933245
0.999999349127
0.9999993657
0.999999379671
0.999999388423
0.999999389968
0.999999383663
0.999999371786
0.999999360865
0.999999360874
0.999999378351
0.999999405282
0.999999421551
0.999999407151
0.999999352449
0.999999258894
0.999999163869
0.99999931248
0.999999913584
0.999999998482
1.00000010148
1.00000012528
1.00000004991
0.999999914542
0.999999762895
0.999999640457
0.999999557234
0.999999504147
0.999999472358
0.999999459553
0.999999464366
0.9999994803
0.999999499504
0.999999515753
0.999999526536
0.999999533341
0.999999538814
0.99999954539
0.999999554394
0.999999566398
0.999999580595
0.99999959589
0.999999610636
0.999999622267
0.999999628534
0.999999627465
0.999999618071
0.999999602673
0.999999589177
0.999999585252
0.999999599773
0.999999625218
0.999999637284
0.999999615236
0.99999954182
0.999999420507
0.999999310906
0.999999419944
0.999999905356
0.999999981674
1.00000010661
1.00000015344
1.00000009498
0.999999963813
0.99999982412
0.999999707511
0.999999632373
0.999999587832
0.999999563255
0.999999555688
0.999999564103
0.999999582044
0.999999602227
0.99999961876
0.999999629118
0.999999635081
0.999999639684
0.999999645529
0.999999653964
0.999999664981
0.99999967773
0.999999691385
0.999999704111
0.999999713547
0.999999717652
0.999999714295
0.999999701854
0.999999682102
0.999999662913
0.99999965414
0.999999665631
0.999999690369
0.999999702641
0.999999668818
0.999999571404
0.999999423581
0.999999307369
0.999999408745
0.999999823819
0.999999914222
1.0000000567
1.00000011736
1.00000006529
0.999999938819
0.999999793038
0.999999677774
0.999999605062
0.999999563538
0.999999541583
0.999999536088
0.999999545478
0.999999563217
0.999999582725
0.999999598123
0.999999607149
0.99999961158
0.999999614419
0.999999618411
0.999999624916
0.999999633696
0.999999643807
0.999999654405
0.999999663495
0.999999668884
0.999999668428
0.999999659438
0.999999639954
0.999999611997
0.999999584498
0.999999570393
0.999999579438
0.999999606065
0.999999621387
0.999999588692
0.99999948717
0.999999327444
0.999999176661
0.999999305854
0.999999723222
0.999999834655
0.999999992651
1.00000006061
1.00000001178
0.999999884723
0.999999736713
0.999999621641
0.999999550821
0.999999511216
0.999999490531
0.999999485907
0.999999494192
0.999999511577
0.99999953167
0.999999545951
0.999999553712
0.99999955722
0.999999558409
0.999999558905
0.999999560727
0.999999566044
0.999999573883
0.999999582484
0.999999589997
0.999999593136
0.999999589736
0.999999575283
0.999999549098
0.999999514271
0.99999947996
0.999999462622
0.999999469171
0.999999493867
0.999999509246
0.999999479129
0.999999377315
0.999999208615
0.999999043402
0.999999188331
0.999999636249
0.999999764938
0.99999993353
1.00000000582
0.999999961046
0.999999834853
0.999999688288
0.999999576044
0.999999507265
0.999999470624
0.999999452361
0.999999444309
0.999999451332
0.999999470891
0.999999494109
0.999999511144
0.999999519232
0.999999520934
0.999999519839
0.999999519065
0.999999519681
0.999999524057
0.99999953092
0.999999538225
0.999999544288
0.999999546849
0.999999543188
0.999999529067
0.99999950161
0.999999463176
0.999999421811
0.999999394865
0.999999397105
0.999999423682
0.99999944144
0.999999412032
0.999999311097
0.999999141757
0.999998968371
0.999999126933
0.99999957697
0.999999698301
0.999999875231
0.999999953675
0.999999913891
0.999999790322
0.999999647557
0.999999539574
0.99999947542
0.999999443045
0.999999428925
0.999999423561
0.999999431728
0.999999454362
0.99999948216
0.999999502274
0.999999511926
0.99999951409
0.999999513196
0.999999513198
0.999999515564
0.999999521888
0.999999528903
0.999999535264
0.999999538731
0.999999539322
0.999999536324
0.999999523338
0.999999495394
0.999999455169
0.999999410448
0.999999376372
0.999999370757
0.999999395556
0.999999416448
0.999999385293
0.999999284143
0.999999117702
0.999998943471