/*--------------------------------*- C++ -*----------------------------------*\
| =========                 |                                                 |
| \\      /  F ield         | foam-extend: Open Source CFD                    |
|  \\    /   O peration     | Version:     4.1                                |
|   \\  /    A nd           | Web:         http://www.foam-extend.org         |
|    \\/     M anipulation  |                                                 |
\*---------------------------------------------------------------------------*/
FoamFile
{
    version     2.0;
    format      ascii;
    class       volScalarField;
    location    "0.9";
    object      epsilon;
}
// * * * * * * * * * * * * * * * * * * * * * * * * * * * * * * * * * * * * * //

dimensions      [0 2 -3 0 0 0 0];

internalField   nonuniform List<scalar> 
96000
(
0.00632211851757
0.00667539121531
0.00709320008399
0.00735239849465
0.00749363306998
0.00756745472123
0.00760519691918
0.00762483087078
0.00763548788186
0.00764212854196
0.00764698117931
0.00765121784906
0.00765530285979
0.00765947647578
0.00766381250255
0.00766834145129
0.00767306435305
0.00767796849094
0.00768302968911
0.00768819119079
0.00769344389838
0.00769884870047
0.00770429442946
0.00770973092435
0.00771515141847
0.00772051713554
0.00772577942233
0.00773086205263
0.0077356064631
0.00773973621593
0.00774256936729
0.00774281613629
0.00773754309869
0.00772135213954
0.00768326150516
0.0076041578141
0.00744956901815
0.00716774394557
0.00671758451089
0.00633060920643
0.00667414170917
0.0103413499682
0.0132160179456
0.0151289921316
0.0162944915421
0.0169811474619
0.0173702342654
0.0175855646079
0.0177018349252
0.0177662773325
0.01780390545
0.0178291353885
0.0178486652724
0.0178661108136
0.0178829458221
0.0178999338712
0.0179173230313
0.0179352033212
0.0179535641614
0.0179722722392
0.0179913170245
0.0180107306723
0.0180303188443
0.0180498694269
0.0180692541663
0.0180882086926
0.0181061932688
0.01812229543
0.0181344057633
0.0181385841101
0.0181263696105
0.018082673378
0.0179781422075
0.0177649927182
0.017361050956
0.0166452852248
0.0154298498203
0.0134549296156
0.0104919682734
0.00667849510356
0.00709009211418
0.0132114904041
0.0181847258722
0.0215671727532
0.0237342985852
0.0250817074493
0.0258881557916
0.0263565809694
0.0266193954963
0.0267661731612
0.026849087661
0.0268996349128
0.0269341537794
0.0269615879412
0.0269860902906
0.0270098007767
0.0270335735786
0.0270578056652
0.0270825670529
0.0271077856008
0.027133454907
0.0271595752855
0.0271858941652
0.0272121039935
0.0272378748127
0.0272625670694
0.0272848722503
0.0273023128373
0.0273096421194
0.0272971479045
0.0272456430664
0.0271222655415
0.0268686116739
0.0263948290157
0.0255585821063
0.0241622792686
0.0219177632915
0.0184410081869
0.0133362253277
0.00708315144932
0.00734836398238
0.0151240537367
0.0215673576111
0.0260651875848
0.029050923433
0.0309771324226
0.0321753803061
0.0328974521324
0.0333169591716
0.0335567830956
0.0336932158972
0.0337743226015
0.0338267628312
0.0338654981638
0.0338980553881
0.0339283192533
0.0339579914705
0.0339878764428
0.0340182380763
0.0340490775667
0.0340804279098
0.0341122038035
0.034144082814
0.0341756852521
0.0342063977513
0.0342350770202
0.0342594013274
0.0342749277877
0.0342727298989
0.0342366045375
0.0341364415131
0.0339223827254
0.0335111355961
0.0327797831258
0.0315440598371
0.0295587365626
0.0264803302212
0.0218689447239
0.0152585818597
0.00733662806331
0.00748924257776
0.016290010086
0.0237357895652
0.0290525419777
0.0326771999815
0.0350803085526
0.0366185739894
0.0375719643051
0.0381414288561
0.0384742557906
0.0386662569814
0.0387799262874
0.0388515222108
0.0389020532885
0.0389425968336
0.0389789243046
0.0390137716888
0.0390484373617
0.0390834107731
0.0391188145782
0.0391546994479
0.0391909212145
0.0392270998676
0.0392627397534
0.0392969252834
0.0393279348433
0.0393523152193
0.0393635088038
0.0393488190449
0.0392856893966
0.039133987267
0.0388292241716
0.0382682662768
0.0373038726895
0.0357239488029
0.0332554079083
0.0295275347108
0.0240819893488
0.0164406988375
0.00747662777873
0.00756300695484
0.0169776877194
0.0250853519391
0.0309815296357
0.035083440775
0.0378594724933
0.0396749684618
0.0408245440542
0.0415261180996
0.0419437601545
0.0421881260136
0.042333213698
0.0424235575146
0.0424856380471
0.0425337800588
0.0425756716639
0.0426151021737
0.0426538744718
0.0426927318348
0.0427319267138
0.0427715224116
0.0428113444553
0.0428509598727
0.0428897378709
0.0429264529483
0.0429588033888
0.0429822057053
0.0429880689744
0.0429601994861
0.0428703823864
0.0426699775809
0.0422827264949
0.0415905700408
0.0404292915517
0.0385693880595
0.0357229676927
0.0315090534815
0.0254705770169
0.0171437269704
0.00755079686258
0.00760080930157
0.0173678917857
0.0258940467934
0.0321827616106
0.0366252252236
0.0396787469215
0.0417082040643
0.043014294641
0.0438244792387
0.0443139008155
0.0446036956387
0.0447766045058
0.0448837428749
0.0449561064535
0.0450108871512
0.0450574889727
0.045100617123
0.0451425892588
0.0451843982085
0.0452264187409
0.0452687472279
0.0453111763193
0.0453532371937
0.0453941584521
0.0454324391077
0.0454652217256
0.0454869092822
0.0454871125453
0.0454466298832
0.0453325582904
0.0450894980525
0.0446322600075
0.0438321198556
0.0425137074598
0.0404374926173
0.0373092512607
0.0327474957433
0.0263052703477
0.0175422200171
0.00758843545263
0.00762058430029
0.0175845470194
0.0263649820661
0.0329082318608
0.0375826514898
0.040832722298
0.0430188699895
0.0444429343227
0.0453371561404
0.0458834948011
0.0462100822521
0.0464059196484
0.0465270663143
0.0466080228773
0.046668290106
0.0467186591311
0.0467646468914
0.0468090007927
0.046852939818
0.0468969540925
0.0469411655346
0.0469853619507
0.0470290277433
0.0470712812896
0.0471103807464
0.0471430045414
0.0471627048919
0.047157616558
0.047106124637
0.0469716909203
0.046693847153
0.0461810022873
0.0452972117703
0.0438602074944
0.0416253215425
0.0382968291922
0.0334972929775
0.0267917379681
0.0177618559386
0.00760773066911
0.00763138727655
0.0177020479013
0.0266301647781
0.0333309494532
0.0381559606855
0.0415386004362
0.0438336141573
0.0453418261225
0.0462973885409
0.0468860781615
0.0472404633954
0.0474538219451
0.0475856916225
0.047673141864
0.0477373985522
0.0477903362136
0.0478381065128
0.0478838182404
0.0479288783855
0.0479738659642
0.0480189341388
0.0480638745713
0.0481081424926
0.04815076415
0.0481898146515
0.0482216125872
0.0482390363225
0.0482290855568
0.0481683442639
0.0480176236018
0.0477128573183
0.0471581072698
0.046212824452
0.0446908109183
0.0423452654706
0.0388814462752
0.0339273258612
0.0270584685292
0.0178739217106
0.00761687587868
0.00763817697865
0.0177676966911
0.0267792163201
0.0335737993973
0.0384924471082
0.0419603844204
0.0443274506097
0.0458927339742
0.0468906947234
0.0475091216702
0.0478832566858
0.048109122774
0.0482485772179
0.0483404707778
0.0484072592227
0.0484616102814
0.0485101551362
0.0485562601194
0.0486014795391
0.0486464846266
0.0486914452359
0.0487361610855
0.0487800786001
0.0488221705113
0.0488603662222
0.0488907159759
0.0489056252867
0.0488912837703
0.0488230033725
0.0486597710991
0.0483351052398
0.0477502930486
0.046762031799
0.0451821082575
0.0427632412568
0.0392125057841
0.0341629021998
0.0271975673662
0.0179275094861
0.00762123588203
0.00764316343765
0.0178063925328
0.0268641439112
0.0337129941847
0.0386877823904
0.0422084526199
0.0446212105849
0.0462234237228
0.0472492394491
0.0478874245333
0.0482747209606
0.0485088276205
0.048653087978
0.0487475378009
0.0488154753999
0.0488701061782
0.0489183911424
0.048963917221
0.0490083342865
0.0490523806105
0.0490962530213
0.0491397660169
0.0491823744971
0.0492230046868
0.049259504109
0.0492877493061
0.04929982119
0.0492813694464
0.0492068613767
0.0490340980367
0.0486950682211
0.0480894049014
0.0470722686016
0.0454545937977
0.0429893832982
0.0393855594095
0.0342801021728
0.0272609151516
0.0179469687707
0.00762273804214
0.00764752587313
0.0178325667325
0.0269165542749
0.0337965730612
0.0388043652113
0.0423568126878
0.044797592284
0.0464228349958
0.0474661888575
0.0481168619835
0.0485123693794
0.0487514193332
0.0488982810144
0.0489937420009
0.049061634203
0.0491155512367
0.0491626909829
0.0492067615199
0.0492495082702
0.0492917162203
0.0493336201877
0.0493750460929
0.0494154559579
0.0494537715108
0.0494878006978
0.0495133145509
0.0495221896774
0.0494997402053
0.049419902967
0.049239761697
0.0488903939455
0.0482705273603
0.0472345499202
0.0455931907267
0.0430999874176
0.0394653954687
0.0343292505666
0.0272819559018
0.0179481128663
0.0076236075394
0.00765171966773
0.0178528850516
0.0269526553581
0.0338511016501
0.0388784492475
0.0424499325676
0.0449076333433
0.0465469175398
0.0476009565946
0.0482591362609
0.0486593637907
0.0489009613632
0.0490487291787
0.0491439474837
0.0492108189001
0.0492631665521
0.0493083518485
0.0493501800112
0.049390462821
0.0494300411307
0.0494691617098
0.0495076840628
0.0495450940308
0.0495803212997
0.049611162198
0.0496333367188
0.0496386074329
0.0496120941301
0.0495274223511
0.0493412726965
0.0489842225208
0.0483545681156
0.0473063803395
0.0456505035574
0.0431410619097
0.0394899991136
0.0343407360182
0.0272842296779
0.0179480600678
0.0076258744296
0.00765598709476
0.017870954247
0.026981441023
0.0338916637309
0.0389311224742
0.0425142788703
0.0449823209459
0.0466301626671
0.0476905721667
0.0483530372683
0.0487556623478
0.0489981215407
0.0491455679732
0.0492396125767
0.0493046574244
0.0493547202002
0.049397255721
0.0494361559679
0.0494732884471
0.049509531711
0.0495451600011
0.049580066579
0.0496137784798
0.0496452435574
0.0496722632372
0.0496905434562
0.0496917956057
0.049661040182
0.0495717418022
0.0493803903315
0.0490173148416
0.048382276378
0.047329150163
0.04566830985
0.0431552849785
0.0395009791815
0.0343493405972
0.0272904020735
0.0179538499028
0.00762978121577
0.00766040096996
0.0178882284929
0.0270070317024
0.0339256682701
0.0389733211542
0.0425641601408
0.0450388177658
0.0466920108443
0.0477561974718
0.0484209500705
0.0488244490161
0.0490666356151
0.0492128866521
0.0493050051446
0.049367579414
0.0494147321264
0.0494540149198
0.049489385472
0.0495227518495
0.0495550329078
0.049586548997
0.049617225549
0.0496466317333
0.0496737495249
0.0496963978866
0.0497103018323
0.049707172758
0.0496726330394
0.0495828661501
0.0493930170724
0.0490324571129
0.0483984957637
0.047345512808
0.0456834991047
0.0431687750721
0.0395127699023
0.0343604424911
0.027300686307
0.0179641941251
0.00763517422339
0.00766499165845
0.0179054496596
0.0270315315435
0.0339569643879
0.0390108310193
0.0426072452385
0.0450864782789
0.0467432110938
0.0478096577947
0.0484754647867
0.0488788744303
0.0491200139329
0.0492644004079
0.0493540186552
0.04941357077
0.0494572847414
0.0494927904803
0.0495240857524
0.049553140084
0.0495809236178
0.0496077897015
0.0496337148037
0.0496583098824
0.0496806015655
0.0496984772795
0.0497107151852
0.0497110752734
0.0496821122121
0.0495961992216
0.0494087086042
0.0490493325146
0.0484153654031
0.0473617863816
0.0456985910245
0.0431829248727
0.039525921729
0.0343736237201
0.027313825827
0.0179778573865
0.00764185085116
0.00766974880238
0.0179228401684
0.0270557491434
0.0339872460287
0.0390463334237
0.0426472369472
0.0451299485802
0.046789212712
0.0478570325803
0.0485231474948
0.0489258309026
0.0491653549365
0.0493073711806
0.0493940027836
0.0494500618331
0.0494898733931
0.0495211166619
0.0495478672368
0.0495721446473
0.0495949720048
0.0496167420184
0.0496374885371
0.0496569085388
0.0496776257513
0.0497007980808
0.0497197337638
0.0497240944608
0.0496978267421
0.0496135285889
0.0494266994062
0.0490672231599
0.0484326923398
0.0473779575707
0.0457135491328
0.0431969885156
0.0395394061003
0.0343875685762
0.0273283512061
0.017993443077
0.00764958817798
0.007674663202
0.0179404632682
0.0270800244973
0.0340172563159
0.0390810705615
0.0426858921235
0.045171480279
0.0468327007482
0.0479013571744
0.0485672973442
0.0489687965546
0.0492062819561
0.0493455158301
0.0494287550934
0.0494809216817
0.0495164097637
0.0495429894079
0.0495647859221
0.0495838928967
0.0496013756576
0.0496177004225
0.0496342317917
0.0496581788092
0.0496865246859
0.0497144305752
0.0497362316675
0.0497423866593
0.0497169989376
0.0496328756683
0.049445635227
0.0490853576061
0.0484496837534
0.047393482227
0.0457277936892
0.0432102375354
0.0395523065507
0.0344011641817
0.0273429125107
0.0180098924319
0.00765825575936
0.0076797031262
0.0179582542865
0.0271043941459
0.0340471826728
0.0391154666225
0.0427238777108
0.0452120083411
0.046874834226
0.0479439941414
0.0486094143398
0.049009399866
0.0492445103451
0.0493806186091
0.049460122531
0.0495080226365
0.0495388286635
0.0495603794716
0.0495768771374
0.0495904791056
0.049602344718
0.0496172659688
0.0496418532396
0.0496719033857
0.049703847056
0.0497337927848
0.0497566037635
0.0497631284221
0.0497376032549
0.0496528816745
0.0494647084792
0.0491031782311
0.048465848176
0.0474080314995
0.0457407311716
0.0432221209408
0.0395637861433
0.034413458249
0.0273566209973
0.0180264156397
0.0076677645704
0.00768482032373
0.0179761010547
0.0271287841302
0.0340770462565
0.0391496528384
0.0427614603309
0.0452519128934
0.0469161089936
0.0479855140824
0.048650152991
0.0490483395439
0.0492807786624
0.0494134613795
0.0494888984687
0.0495322195125
0.049558027214
0.0495742522694
0.0495851710492
0.0495930616072
0.0496057455639
0.0496294925969
0.0496592592944
0.0496921451149
0.0497254048087
0.049756014736
0.0497788216959
0.0497849466475
0.0497587137177
0.049672980457
0.0494834280413
0.0491203149192
0.048481124661
0.0474214148749
0.0457523277894
0.0432324779322
0.0395736392886
0.0344241062242
0.0273689111418
0.0180425918095
0.0076781271024
0.00769000007681
0.0179939838664
0.0271531633364
0.0341068408577
0.0391836303715
0.0427986588017
0.0452912251725
0.0469565714919
0.0480259950218
0.0486896075939
0.0490857474177
0.0493152601652
0.0494442362661
0.0495153402711
0.0495538144297
0.0495743777019
0.0495850486524
0.0495902339438
0.0495995980402
0.0496209316308
0.0496492910832
0.0496814597808
0.0497153533082
0.0497489729626
0.0497793483714
0.0498016351271
0.0498069971208
0.0497797900668
0.0496928670541
0.0495018566186
0.0491370144686
0.0484958733204
0.0474340845178
0.0457630554871
0.0432417130291
0.0395821598001
0.0344332673383
0.027379841094
0.0180582976352
0.00768940017686
0.00769526771022
0.0180118972157
0.0271774967742
0.0341364321385
0.0392172121138
0.0428352478353
0.0453297058305
0.0469959817331
0.0480652000692
0.0487275669184
0.0491214423947
0.0493477980058
0.0494728448611
0.0495393983712
0.049572826678
0.0495879617448
0.0495929544114
0.0495981114487
0.0496162425118
0.0496422398696
0.0496727273758
0.049705765546
0.0497397839613
0.0497730764533
0.0498028796528
0.0498244426658
0.0498289697067
0.0498008166376
0.0497127685686
0.0495204139375
0.0491539122498
0.0485108846292
0.0474469747452
0.045773894583
0.0432508483567
0.0395902730151
0.0344417127782
0.0273898770107
0.0180736730272
0.00770160667673
0.00770057237138
0.0180296818609
0.0272015397234
0.0341655299782
0.0392500410513
0.0428708244029
0.0453669194154
0.0470338704943
0.0481026470127
0.0487635473891
0.0491549398513
0.0493779306641
0.0494988639572
0.0495606975454
0.0495889333828
0.0495985363889
0.049600850037
0.0496148994806
0.0496377432909
0.049665901073
0.0496972035185
0.0497303171848
0.0497639775835
0.0497967038797
0.049825879897
0.0498468120741
0.0498507144012
0.0498218914623
0.0497330836827
0.0495397713036
0.0491719470922
0.0485272800294
0.0474613884238
0.0457862234837
0.0432612578685
0.0395992748722
0.0344505090014
0.0273997538205
0.018089011974
0.00771464968939
0.00770584142461
0.0180471535176
0.0272250141185
0.0341937814626
0.0392816585689
0.0429047871564
0.0454021307357
0.0470693943151
0.0481374154186
0.0487965674645
0.0491852398898
0.0494046729679
0.0495213310539
0.0495783211546
0.0496012757496
0.0496056314707
0.0496153384284
0.0496347592699
0.0496601445772
0.0496892052903
0.0497205937045
0.0497533408913
0.0497864579316
0.0498186481746
0.0498474004646
0.0498680453326
0.0498718155337
0.0498429421337
0.0497540250651
0.0495603889472
0.0491918418738
0.0485459869862
0.0474784427684
0.0458013101965
0.0432743114915
0.0396105414792
0.0344608998421
0.0274103637464
0.018104695969
0.00772839966282
0.00771105777949
0.0180641621172
0.027247586248
0.0342205888542
0.0393111801004
0.0429359767976
0.0454339011712
0.0471008898996
0.0481676601087
0.0488246638346
0.0492103122663
0.0494259658837
0.0495381926892
0.0495902405467
0.0496079021466
0.0496146198379
0.0496307288272
0.0496532369672
0.0496797345089
0.0497089637557
0.0497400121138
0.0497722205129
0.0498048868238
0.0498367680579
0.0498655210856
0.0498865122096
0.0498909098275
0.0498628226646
0.0497746746248
0.0495815867933
0.0492131520358
0.048566859832
0.0474982796984
0.0458196160738
0.043290773548
0.0396250944418
0.0344740465658
0.0274227759212
0.0181213642239
0.00774282560364
0.00771619206356
0.0180804966972
0.0272686921724
0.0342448910296
0.0393369687976
0.0429621648056
0.0454594778356
0.0471251494724
0.0481898147518
0.048844028093
0.0492261932753
0.0494377590657
0.049545370224
0.0495923873922
0.0496062380332
0.0496204038695
0.0496404209915
0.0496644377973
0.0496912449656
0.0497201650224
0.0497506662058
0.0497823969865
0.0498147963095
0.0498468188854
0.0498762100958
0.0498983390726
0.0499042745069
0.0498779768823
0.049791657942
0.0496002146295
0.049233029827
0.0485874242069
0.0475189078323
0.0458397265165
0.043309872152
0.0396428034596
0.0344904414568
0.0274379456262
0.0181399131432
0.00775800359569
0.00772119291596
0.0180956716217
0.0272870784313
0.0342644345635
0.0393556565387
0.042978879694
0.0454733833798
0.047135855547
0.0481969237205
0.0488472419279
0.0492251603543
0.049432148416
0.0495348617246
0.0495767487259
0.0495931989236
0.0496123161649
0.0496345303557
0.0496591221429
0.0496857411576
0.0497140534097
0.0497439330687
0.0497752512233
0.0498077070255
0.049840413254
0.0498711341879
0.0498952321271
0.0499036666797
0.0498802331926
0.0497969299937
0.0496084438106
0.0492439947455
0.0486007585857
0.0475341710412
0.0458564767938
0.0433276086017
0.0396609043099
0.034508498156
0.0274552809135
0.0181603162455
0.00777385175948
0.00772599642043
0.0181088173972
0.0273003855825
0.0342749066339
0.0393608379099
0.0429776946239
0.0454654093273
0.047121346192
0.048176223126
0.0488207590827
0.0491931508603
0.0493947562191
0.0494921167442
0.0495295282298
0.0495518254412
0.0495740589432
0.0495971784158
0.0496216401574
0.0496475461161
0.0496750320661
0.0497042518072
0.0497353194824
0.0497681718165
0.0498020249689
0.0498347054457
0.049861507332
0.0498733114114
0.0498537752356
0.0497747381117
0.0495907734593
0.0492310091217
0.0485926551144
0.0475310981062
0.0458585571557
0.0433347048007
0.0396724478482
0.0345235377251
0.0274721125666
0.018181344752
0.00779018125922
0.00773045665219
0.0181178493303
0.0273034346799
0.0342674714207
0.0393399442235
0.0429425768917
0.0454165469168
0.0470602515749
0.0481045714622
0.0487401977381
0.0491049668415
0.0492998815781
0.0493911582597
0.0494279711371
0.0494543762018
0.0494779799522
0.0495011246377
0.0495248900646
0.0495497338139
0.049576173328
0.049604631767
0.0496355249291
0.049668952305
0.0497042494488
0.0497392535126
0.0497692648688
0.0497850856882
0.049770311017
0.0496967751216
0.0495191585689
0.0491667412095
0.0485369774834
0.0474854325343
0.0458243357406
0.0433129060067
0.0396630879636
0.0345254653263
0.0274824075016
0.0182003159317
0.00780662586724
0.00773430641066
0.0181189800606
0.0272866858456
0.0342261400977
0.0392706619948
0.0428456053741
0.0452942459479
0.0469164310861
0.047943221464
0.0485650309562
0.048918940831
0.0491051795283
0.049189281514
0.049228068541
0.0492562368344
0.0492800314956
0.0493024511696
0.0493249435574
0.0493483423091
0.0493734543776
0.0494009848021
0.0494315848238
0.0494655108435
0.0495022019926
0.0495395571834
0.0495728781818
0.0495929872042
0.0495836052908
0.0495168198342
0.049347739769
0.0490062419715
0.0483905121321
0.0473566808921
0.0457172154829
0.0432307289975
0.0396076474903
0.0344961884545
0.0274753756935
0.018212826003
0.00782270492685
0.00773686805697
0.0181037695935
0.0272310106222
0.0341209154301
0.0391130461219
0.0426383973139
0.0450434320604
0.0466298073345
0.0476285653522
0.048229305762
0.0485676541583
0.0487423795376
0.0488190691822
0.0488595930307
0.0488878506417
0.0489108338984
0.0489318060984
0.0489525216018
0.04897406272
0.0489974863652
0.0490237460909
0.0490536856635
0.0490877062027
0.049125349928
0.0491646010639
0.0492008379688
0.049225082668
0.0492214286127
0.049162589632
0.0490046547444
0.048678796247
0.0480847075698
0.0470798095583
0.0454773580489
0.0430354525097
0.0394624864483
0.0344028679899
0.027429999837
0.0182091528914
0.00783718224153
0.00773689197092
0.0180573580868
0.0271038766471
0.0339023604374
0.0388030965819
0.0422452523225
0.0445795450145
0.0461094920861
0.0470654489179
0.0476351723318
0.0479516785173
0.0481112297355
0.0481810282282
0.0482205419712
0.0482474182077
0.0482686020411
0.0482875142162
0.0483060263257
0.0483253259512
0.0483466543531
0.0483711817184
0.0483998900306
0.0484333021318
0.048471079161
0.0485113239044
0.0485496429556
0.0485774533904
0.0485795609965
0.048529845016
0.0483861500961
0.0480819292855
0.047519559237
0.0465589914174
0.045015365843
0.0426468506531
0.0391596232874
0.0341929238878
0.0273115781161
0.0181730720186
0.00784822751104
0.0077314483008
0.017950423534
0.0268469493431
0.0334873219879
0.038237903757
0.0415484379382
0.0437743031934
0.0452200924731
0.0461139764825
0.0466400913066
0.0469270582221
0.0470671152051
0.0471296830234
0.0471661002442
0.0471904442941
0.0472092451886
0.0472257664329
0.0472417741739
0.0472585490755
0.0472774336294
0.0472997206078
0.0473264879676
0.0473583683978
0.0473951468345
0.0474351325457
0.0474742905572
0.0475046912871
0.0475122771344
0.0474727613881
0.047346716983
0.0470711946912
0.0465529329779
0.0456563014836
0.0442001655346
0.0419442199877
0.0385932919267
0.0337806041521
0.0270595503837
0.0180729415626
0.00785150768309
0.00771520198319
0.0177355934603
0.0263709308144
0.0327535021655
0.0372709228985
0.0403844964737
0.0424531323977
0.043780216873
0.0445889363646
0.0450569493679
0.0453059375756
0.0454220908766
0.0454762708151
0.0455076185861
0.0455285269384
0.0455445823605
0.0455585685852
0.045572036594
0.0455862365424
0.0456025110689
0.0456221693621
0.0456463487274
0.0456757646431
0.0457103608625
0.0457487060528
0.0457872776282
0.0458190622134
0.0458316046308
0.0458031915077
0.0456982678173
0.0454591211382
0.0449990420159
0.0441894756628
0.0428559578676
0.0407625994332
0.0376153451975
0.0330420974046
0.026583346341
0.0178599909294
0.00784030249237
0.00767718311658
0.0173307108774
0.025533453358
0.0315166565951
0.0356901525772
0.0385240919041
0.0403768055163
0.0415456351109
0.0422441179787
0.0426392290342
0.0428422711845
0.0429326563973
0.0429766389756
0.0430022401588
0.0430196171325
0.0430331915456
0.043045041222
0.0430563879679
0.0430683352932
0.0430821592345
0.0430990927055
0.0431202611761
0.0431464536447
0.0431778006473
0.0432131844854
0.0432497118067
0.0432815106961
0.0432981624656
0.0432812627378
0.0432003205968
0.0430047377138
0.0426169671415
0.0419189985099
0.0407474832845
0.0388758087542
0.0360158555359
0.0317939773002
0.0257402603089
0.0174495449898
0.0078004541446
0.00759841337228
0.0166152881006
0.0241375083866
0.0295321093853
0.0332229695089
0.0356797941547
0.0372515355723
0.0382211006433
0.0387853180227
0.0390946307233
0.0392457147109
0.0393097788243
0.0393419830868
0.0393614741302
0.0393755342736
0.039387171713
0.0393975760513
0.0394075229867
0.0394178865556
0.0394297707518
0.0394442558767
0.0394623556166
0.0394848846435
0.0395121996983
0.0395435648438
0.0395767345425
0.0396071116103
0.0396266499982
0.0396208770326
0.0395655051984
0.0394188432999
0.0391155452804
0.0385525247753
0.0375834449108
0.0359982776186
0.033523252658
0.0297921400266
0.0243338737253
0.0167205112051
0.00771068916396
0.00744446582881
0.0154017296836
0.0218949124542
0.0264563263346
0.029498662226
0.031470717341
0.0326961363157
0.0334297190624
0.0338413677118
0.0340573480289
0.0341547692927
0.0341950909877
0.0342167065764
0.0342314595493
0.0342436759133
0.0342548230242
0.0342652198464
0.0342751664896
0.0342852781639
0.0342964210137
0.0343094823167
0.0343252593091
0.0343444592745
0.0343677057244
0.0343947108348
0.0344238139571
0.0344516712438
0.034472749145
0.0344768847102
0.0344466888348
0.0343509705051
0.034139441477
0.033728875131
0.0329973410309
0.031761725735
0.02977626227
0.0266988794549
0.0220780846561
0.0154837416675
0.0075332778002
0.0071638310618
0.0134305816078
0.0184212564267
0.0218485357283
0.0240576487028
0.0254383795432
0.0262621630705
0.0267350517442
0.026986412552
0.0271091566201
0.0271568881294
0.0271769841741
0.0271893467974
0.0272004744158
0.0272118544162
0.0272234933656
0.0272349404425
0.027246114238
0.0272572452332
0.0272688967959
0.0272817144312
0.0272962234319
0.0273128435347
0.0273323222205
0.0273549282658
0.0273794539495
0.0274036885686
0.0274245046192
0.0274359137051
0.027427595366
0.0273796367431
0.027259094466
0.0270074994907
0.0265360516129
0.0257026805226
0.0243100045517
0.0220684578218
0.0185847757373
0.0134773419616
0.00721761963097
0.00671566540927
0.0104743284464
0.0133213133128
0.0152430622193
0.0164225178617
0.017120394331
0.0175117838866
0.0177226415692
0.0178247589381
0.0178677909598
0.017879766672
0.0178862070608
0.0178935666242
0.0179038092161
0.0179164085759
0.017930497122
0.0179453806249
0.0179606995463
0.0179763377794
0.0179924919053
0.018009484017
0.0180275090762
0.0180465711403
0.0180671042831
0.0180897676761
0.0181137574633
0.0181377673613
0.0181605468187
0.0181795575725
0.0181905771494
0.0181844508151
0.0181459653617
0.0180448123364
0.0178335218068
0.0174281202195
0.0167074007185
0.0154800260111
0.0134803814866
0.0104839154225
0.00673125658047
0.0063309342259
0.00667572152053
0.00708055594278
0.00733400896147
0.0074737794529
0.00754741084323
0.00758414558335
0.0076022733537
0.00760998901983
0.00761279856451
0.0076140102644
0.00761627644261
0.00762024915964
0.00762602025247
0.00763336341564
0.00764209540839
0.0076517995126
0.00766234676547
0.00767375835041
0.00768602266834
0.00769909171466
0.00771287975877
0.0077272823158
0.00774228115188
0.00775792055929
0.00777399097714
0.00779023152362
0.00780645079977
0.00782225169459
0.00783716926106
0.00785009530732
0.00785938410352
0.00786093521897
0.00784829726594
0.00780748918712
0.00771729308917
0.00753944494285
0.007222325399
0.00673117268721
0.00636111966545
0.00669622386562
0.00881884718187
0.0104423597334
0.0114574849373
0.0120582088149
0.0124013963367
0.0125907111506
0.0126930462939
0.0127478303493
0.0127784061058
0.0127970269763
0.0128102949651
0.0128213189935
0.0128316422413
0.0128419124662
0.0128524058434
0.0128632267982
0.0128743825138
0.0128858283719
0.0128974872589
0.0129093342423
0.0129214335454
0.0129336160816
0.0129457669743
0.0129578239996
0.0129696595975
0.0129810696558
0.0129916273152
0.0130004192183
0.0130056651889
0.0130035399533
0.0129867909662
0.0129412400394
0.012842189391
0.0126464520683
0.012285522565
0.0116512037697
0.0105857864162
0.00889780523825
0.00671654839058
0.00881421872964
0.0105381712065
0.0125555540856
0.0138998173134
0.0147185281384
0.0151946477178
0.0154606997374
0.0156048778091
0.0156811562456
0.0157217934688
0.0157444086506
0.0157585348877
0.0157688566648
0.0157777079221
0.0157861307038
0.0157946086715
0.0158033322749
0.015812367094
0.0158217159212
0.0158313392254
0.0158412143585
0.0158513471723
0.0158616458207
0.0158720022125
0.0158823216705
0.0158924344999
0.0159020153219
0.0159104331365
0.0159163382185
0.0159170376368
0.0159070224507
0.0158758930145
0.0158041328243
0.0156581225436
0.0153810916338
0.0148844769911
0.0140340448338
0.0126480954112
0.0105774270874
0.00881718426898
0.010434149926
0.0125515957463
0.0151364052728
0.0169401957205
0.0180898086626
0.0187885986188
0.0191963216824
0.0194258948422
0.0195508838393
0.0196177439731
0.0196535739179
0.0196737588368
0.0196863961011
0.0196956718588
0.0197035997936
0.0197111556454
0.0197187621697
0.0197266085443
0.0197347505703
0.0197431882644
0.0197519168673
0.0197609304678
0.0197701466025
0.019779446555
0.0197886798997
0.0197975572925
0.0198054941329
0.0198113199157
0.0198126218015
0.0198046977332
0.019778428966
0.0197173395427
0.0195923170056
0.0193556822444
0.0189315202326
0.0182075377213
0.0170235067203
0.0151791690558
0.0125464400213
0.0104239954636
0.0114474736047
0.0138942959456
0.016938811062
0.0191311164704
0.020576752015
0.0214868486675
0.0220371927354
0.0223579641246
0.022538280214
0.0226370254557
0.0226903535888
0.0227197110721
0.0227369677123
0.0227484722319
0.0227574436056
0.0227654795885
0.0227733099853
0.022781273599
0.0227895045591
0.0227980358193
0.0228068810012
0.0228160166339
0.0228253506962
0.0228347420578
0.0228439541614
0.0228525264443
0.0228595266251
0.0228630959072
0.0228595299827
0.0228418108399
0.0227969191636
0.0227022026849
0.0225195118156
0.0221889543898
0.0216195417295
0.0206823830262
0.0192016248356
0.0169696529887
0.013876908187
0.0114337946952
0.0120475955253
0.0147126693227
0.0180883542211
0.0205768082943
0.0222603569192
0.0233490395752
0.0240259642029
0.0244316986824
0.0246661520706
0.0247977391113
0.0248701605555
0.0249102823956
0.0249335330805
0.0249484461805
0.0249595036541
0.0249689717702
0.0249779379176
0.0249869139509
0.0249961148424
0.0250056136752
0.0250154321564
0.0250255326384
0.0250358036521
0.0250460642597
0.025055977046
0.0250648807575
0.0250714499985
0.0250730821394
0.0250647347519
0.0250370984757
0.0249734919275
0.0248457990533
0.0246083737543
0.0241919453331
0.0234949994246
0.022378513804
0.0206591318195
0.0181297320473
0.0147010472623
0.0120408126707
0.01239090376
0.0151890902028
0.0187877659112
0.0214877362389
0.023349978952
0.0245789562489
0.0253595624806
0.0258377718797
0.0261203039228
0.0262822639997
0.0263731377586
0.0264241768014
0.0264538713958
0.0264727379088
0.0264864202163
0.026497847472
0.0265084694653
0.0265189712541
0.0265296509205
0.0265406206857
0.0265519072374
0.0265634609744