/*--------------------------------*- C++ -*----------------------------------*\
| =========                 |                                                 |
| \\      /  F ield         | foam-extend: Open Source CFD                    |
|  \\    /   O peration     | Version:     4.1                                |
|   \\  /    A nd           | Web:         http://www.foam-extend.org         |
|    \\/     M anipulation  |                                                 |
\*---------------------------------------------------------------------------*/
FoamFile
{
    version     2.0;
    format      ascii;
    class       volScalarField;
    location    "0.9";
    object      k;
}
// * * * * * * * * * * * * * * * * * * * * * * * * * * * * * * * * * * * * * //

dimensions      [0 2 -2 0 0 0 0];

internalField   nonuniform List<scalar> 
96000
(
0.00332726467603
0.00345257828453
0.00359727138276
0.00368591511303
0.00373401817108
0.00375916942347
0.00377205485919
0.00377876538963
0.00378239801357
0.00378464229409
0.00378626158951
0.00378765984793
0.00378899828272
0.00379036079041
0.00379177352052
0.00379324760916
0.00379478376739
0.00379637806959
0.0037980226482
0.00379969876431
0.00380140385592
0.00380315838977
0.0038049255856
0.00380668920963
0.00380844722124
0.00381018712046
0.00381189286173
0.0038135391232
0.00381507218617
0.00381639818541
0.0038172853087
0.00381729672292
0.00381544208693
0.00380990614431
0.00379700182908
0.00377030145952
0.00371810385111
0.00362237242417
0.00346715444375
0.0033303174543
0.00345213281933
0.00353694117001
0.00416901887563
0.00456518247096
0.00479927810835
0.00493519008084
0.00501175634392
0.00505406970779
0.00507691095618
0.00508953849062
0.00509685292341
0.00510168772784
0.00510536771136
0.00510861167582
0.0051117154334
0.00511483306445
0.00511801580438
0.00512128338597
0.00512463498822
0.0051280466644
0.00513151747782
0.00513505508137
0.00513862310232
0.00514218233202
0.00514570864908
0.00514915167682
0.00515240698261
0.0051552963631
0.00515740719841
0.00515797146156
0.00515534474852
0.00514660600221
0.00512608292973
0.00508451491077
0.0050058037285
0.00486552202096
0.004623620185
0.00421780347108
0.00357024170716
0.00345344274091
0.00359619487226
0.00416807387643
0.00516150235243
0.00578655307455
0.00617111018932
0.00640522017085
0.00654394143231
0.00662421723439
0.00666923074577
0.00669436424741
0.00670852325932
0.00671708789995
0.00672285824829
0.00672737646225
0.00673136336892
0.00673519224602
0.006739014289
0.00674290040366
0.00674686510622
0.00675089834444
0.00675500039719
0.00675917236813
0.0067633732084
0.00676755251803
0.00677165498558
0.00677557245017
0.00677908149735
0.00678175909343
0.00678271127032
0.00678028985248
0.00677125102655
0.0067500524515
0.00670683331628
0.00662629220844
0.00648369805292
0.00624309440383
0.00584774197646
0.00520913565186
0.00419374516287
0.00359363382529
0.00368454377751
0.00456423384905
0.00578663043417
0.0065689128027
0.00706478983302
0.00737676396849
0.00756833459275
0.00768311452564
0.00774968785612
0.00778773910454
0.00780936165377
0.00782215484643
0.00783034150743
0.00783630515061
0.00784125023751
0.0078458024464
0.00785023930513
0.00785469285449
0.00785920811462
0.00786378839909
0.00786844015595
0.00787315173224
0.00787787436086
0.00788254937449
0.00788708049193
0.00789128714566
0.00789480133969
0.00789692045391
0.00789623747555
0.00789020897196
0.00787412332064
0.00784018611896
0.00777532603358
0.00765999239749
0.00746405761594
0.00714500120521
0.00663729871673
0.00583989667847
0.00459093338067
0.00368041869676
0.00373254292405
0.0047984790821
0.00617145868674
0.00706510023741
0.00764462209207
0.00801821581773
0.00825375049607
0.00839865673957
0.00848497432465
0.00853539388479
0.00856446150093
0.0085816135077
0.00859232958529
0.00859979784402
0.00860570637837
0.00861094153177
0.0086159267012
0.00862086452661
0.00862583343862
0.00863085546979
0.00863593997388
0.00864106727856
0.0086461822781
0.00865121113947
0.00865601591642
0.0086603361896
0.00866364928447
0.00866496584687
0.00866237754794
0.00865250753287
0.00862936263378
0.00858330687099
0.00849883353642
0.0083534075562
0.00811344742546
0.0077326093654
0.00714072781711
0.00623080824133
0.00482778817567
0.00372817978492
0.00375768490694
0.00493462652592
0.00640596663675
0.00737754995384
0.00801873467149
0.00843975509426
0.00871048357408
0.00888042771847
0.00898376630686
0.00904521936802
0.00908115400155
0.00910243391966
0.0091155939792
0.00912453096958
0.00913136379373
0.00913723656081
0.00914271679758
0.00914807759608
0.0091534336571
0.0091588260337
0.00916426631158
0.00916973118315
0.00917515933334
0.00918045894217
0.00918545028593
0.00918979455182
0.00919281829353
0.0091932635754
0.00918876878183
0.00917523454742
0.00914560722332
0.00908880680003
0.00898753579058
0.00881721235287
0.00854210185599
0.00811372461579
0.00745970270106
0.00647072470493
0.00496646058574
0.00375348767115
0.00377059552661
0.00501142821082
0.00654508441994
0.00756961025021
0.00825482430558
0.00871107013575
0.00900884530488
0.00919863909634
0.00931586078907
0.00938656904039
0.00942840688257
0.00945331275579
0.00946865009039
0.00947889380236
0.00948653808035
0.00949295470457
0.00949883541764
0.00950452382554
0.00951016971102
0.00951583168257
0.00952152621148
0.00952722617355
0.00953286593382
0.00953833503525
0.00954341682143
0.00954769833061
0.0095503723293
0.00954994623557
0.0095436730392
0.00952686187092
0.00949162527314
0.00942579795162
0.0093108104882
0.00912073518733
0.00881857088686
0.00835479067993
0.00765626104136
0.00661329841103
0.0050444836737
0.00376634243383
0.00377735462468
0.00505400304102
0.00662578706778
0.00768492762698
0.00840034294823
0.00888166846946
0.00919931292541
0.00940408836481
0.00953204906117
0.00961008546
0.00965669351402
0.00968458033509
0.00970172998329
0.00971306480905
0.00972137974027
0.00972823019668
0.00973441718146
0.00974034316442
0.00974618941642
0.00975203084602
0.00975788794472
0.00976373329187
0.00976949545746
0.00977504925805
0.00978014590069
0.00978431064737
0.00978662439517
0.00978540279212
0.00977759077703
0.00975804045544
0.00971824044707
0.00964524825235
0.00951963134837
0.00931462091642
0.00899253987185
0.0085034652076
0.00777429351859
0.00669582645522
0.00508725665663
0.00377291346936
0.00378103478168
0.00507707706043
0.00667119134877
0.00775199555302
0.00848722900182
0.00898562873544
0.00931718506255
0.00953271214002
0.00966854739005
0.00975205456502
0.00980227392874
0.00983244021347
0.00985097568625
0.00986313155286
0.00987192803646
0.00987906422807
0.00988542683363
0.00989146769528
0.0098973942772
0.00990329423757
0.00990919275828
0.00991506326801
0.00992083070067
0.0099263576055
0.00993137062021
0.00993534700859
0.00993727903669
0.00993533465354
0.00992622821741
0.00990447761567
0.009861126601
0.00978270191867
0.0096492157103
0.00943341050533
0.0090973035969
0.00859094099573
0.00784159479723
0.00674080222032
0.00510890840841
0.00377598712574
0.0037833256204
0.00508992434195
0.00669669056741
0.00779050240295
0.00853817701895
0.00904766478669
0.00938850616966
0.00961137820037
0.00975268892543
0.00984005492673
0.00989284676248
0.00992464012533
0.00994415119946
0.0099568605845
0.00996594998449
0.00997322424943
0.00997963504566
0.00998566993191
0.0099915570704
0.00999739695787
0.0100032176367
0.0100089939354
0.0100146497586
0.0100200403781
0.0100248730386
0.0100285891817
0.0100301184182
0.010027522779
0.0100173528852
0.00999389528049
0.00994789294463
0.00986553115107
0.00972648644624
0.00950324465447
0.00915773165068
0.00864011975507
0.00787814188393
0.00676397039759
0.00511903399109
0.00377739474111
0.0037849847718
0.00509742517182
0.00671116387191
0.00781252819631
0.00856771208252
0.00908410645494
0.00943087891941
0.0096585350778
0.00980346238389
0.00989340115282
0.00994790814239
0.00998076857664
0.0100008881687
0.0100139012298
0.0100231008186
0.0100303642841
0.0100366885689
0.0100425914302
0.0100483149143
0.0100539691165
0.0100595861211
0.0100651430209
0.0100705649408
0.010075701149
0.0100802477709
0.0100836228532
0.0100847127918
0.0100815085315
0.0100704511039
0.0100456754379
0.00999773224567
0.00991260103091
0.00976976851154
0.00954160721629
0.00919005680065
0.0086654595654
0.0078959633097
0.00677417530116
0.0051224164945
0.00377780435001
0.00378641878965
0.00510241714924
0.00672000953135
0.00782567095244
0.00858526008737
0.00910582023414
0.00945623789986
0.00968688368675
0.00983409002966
0.00992565194149
0.00998122155159
0.0100147105058
0.0100351430304
0.0100482517048
0.0100574009219
0.0100645203963
0.0100706397251
0.0100762941307
0.0100817390047
0.0100870913981
0.0100923887608
0.0100976101629
0.0101026819772
0.010107452835
0.010111613424
0.0101145675272
0.0101151741631
0.0101113797701
0.0100995560332
0.0100737453523
0.0100243827116
0.00993733367412
0.00979198803453
0.00956068674849
0.00920542373992
0.00867669889579
0.00790298438047
0.00677711317185
0.00512242834733
0.00377814568162
0.0037877859995
0.00510621940829
0.00672600836739
0.00783414113054
0.00859630074944
0.00911933284219
0.00947193740485
0.00970439513462
0.00985297931699
0.00994550484476
0.010001670783
0.0100354652141
0.0100559806744
0.0100690142515
0.0100779798292
0.0100848388551
0.0100906436796
0.0100959434264
0.0101010030564
0.0101059474993
0.0101108164964
0.0101155938352
0.0101202092856
0.0101245126532
0.0101281930163
0.0101306471978
0.0101307187993
0.0101263282914
0.0101138062876
0.0100871426472
0.0100367087225
0.00994831459448
0.00980130853723
0.00956804120531
0.00921071645414
0.00868000904206
0.00790471857043
0.00677770376002
0.00512258678018
0.00377893380585
0.00378917101147
0.00510954960864
0.00673071050175
0.00784033942998
0.0086040331993
0.00912854071307
0.00948245258428
0.00971599177709
0.00986537764725
0.00995843398076
0.0100148814941
0.0100487514796
0.0100691812504
0.0100820110708
0.0100906822463
0.0100971825495
0.0101025779517
0.0101074297669
0.0101120110698
0.0101164524831
0.0101207978624
0.0101250358441
0.0101291018144
0.0101328482146
0.0101359648584
0.010137846605
0.0101373300643
0.0101323235646
0.0101191359183
0.0100917319304
0.0100407340015
0.00995189259536
0.00980447779311
0.0095707640469
0.00921302781276
0.00868178934612
0.00790610550053
0.0067787344417
0.00512368191962
0.0037802476573
0.00379059965136
0.00511269994065
0.00673483159693
0.00784545420478
0.00861012744621
0.00913556099892
0.00949027426838
0.00972446156127
0.0098742979251
0.00996761298347
0.0100241335
0.0100579225261
0.0100781453229
0.0100906675496
0.0100989552345
0.0101050111308
0.0101099146873
0.0101142366765
0.0101182564004
0.0101221104353
0.0101258490471
0.0101294655949
0.0101329013336
0.0101360134106
0.0101384944466
0.0101397432409
0.0101385968736
0.0101334603185
0.0101205579607
0.0100936497825
0.0100429672631
0.00995419135315
0.00980672754417
0.00957281147003
0.00921482055026
0.00868334968811
0.0079076135133
0.00678025273557
0.00512552808347
0.00378203897077
0.00379208300767
0.00511582059246
0.00673873956058
0.00785010643448
0.00861547196585
0.00914153557751
0.00949676843991
0.00973135512999
0.00988143366234
0.0099748377909
0.0100312979164
0.0100648983856
0.0100848216532
0.01009695675
0.0101047852519
0.0101103244256
0.0101146647916
0.0101183834591
0.0101217683655
0.0101249634032
0.0101280237658
0.0101309498736
0.0101336890288
0.0101361070257
0.0101380435128
0.0101395323199
0.0101392339332
0.0101347573484
0.0101222757931
0.0100956104877
0.0100450276659
0.00995620924458
0.00980863710915
0.00957455437267
0.00921644824308
0.00868489208802
0.00790926747246
0.00678211266033
0.00512791978445
0.00378424198727
0.00379361803619
0.00511895802583
0.00674257823543
0.00785457194204
0.00862048245185
0.0091470207461
0.00950261941246
0.00973746522715
0.00988766293882
0.00998105241756
0.0100373636339
0.0100706969446
0.0100902508416
0.0101019322014
0.0101092373787
0.0101141970106
0.010117909217
0.0101209618703
0.0101236502803
0.0101261258421
0.0101284495068
0.0101306311935
0.0101326902477
0.0101354308523
0.0101383731793
0.0101406254033
0.0101407720254
0.0101365796533
0.0101242496737
0.0100976211143
0.01004698552
0.00995806424022
0.00981032903329
0.00957609412193
0.009217904392
0.00868634598245
0.00791092617791
0.00678411211867
0.00513061551945
0.00378678373838
0.00379520192933
0.00512212711005
0.00674640973861
0.00785897409728
0.00862535400809
0.00915228362279
0.00950816252228
0.00974318662702
0.00989342866057
0.00998673628782
0.0100428353934
0.0100758433269
0.0100949716177
0.0101061442633
0.0101128723035
0.0101171964542
0.0101202272996
0.0101225602085
0.0101245007888
0.0101262067388
0.0101277532162
0.0101297393316
0.0101328571394
0.0101364701165
0.0101399437847
0.0101424991603
0.0101428152534
0.0101386815629
0.0101263256716
0.0100996027629
0.0100488301641
0.00995973939383
0.00981180880016
0.00957742213836
0.00921914635318
0.00868762682109
0.00791245758794
0.00678605777747
0.00513343004202
0.00378962126058
0.00379682438841
0.0051253171178
0.00675024328145
0.00786334694628
0.00863015612858
0.00915742895261
0.00951354019399
0.00974869332574
0.00989893314119
0.0099921114244
0.0100479532222
0.0100805901453
0.0100992466508
0.0101098647206
0.0101159663901
0.0101196079796
0.0101219100864
0.0101234788589
0.01012462915
0.0101255377537
0.0101274805793
0.0101306447135
0.0101344589401
0.0101384620772
0.0101421337556
0.0101447597048
0.0101450687997
0.0101408677728
0.0101283908797
0.0101015098981
0.0100505460788
0.00996122510658
0.00981308274007
0.00957850605839
0.00922013832344
0.00868865152659
0.00791374747455
0.00678782297483
0.00513622459406
0.00379272429742
0.00379846958257
0.00512850817054
0.00675406907226
0.00786769700539
0.00863491255981
0.00916250018773
0.00951881241172
0.00975406170238
0.00990426383353
0.0099972770994
0.0100528232467
0.0100850496182
0.010103194592
0.0101132148753
0.0101186495415
0.0101215680124
0.0101231037138
0.0101238734958
0.0101242364721
0.0101259282544
0.0101289497789
0.0101326985575
0.0101368067306
0.0101409171221
0.0101446151837
0.010147187765
0.0101473964358
0.0101430593876
0.0101304121534
0.0101033205434
0.0100521270578
0.00996255184769
0.00981416440437
0.00957937489185
0.00922088903912
0.00868941612565
0.00791476472668
0.00678933279185
0.00513892895578
0.00379609687301
0.00380013290253
0.00513169770797
0.006757883493
0.00787202543251
0.00863962625414
0.00916750348412
0.00952398778147
0.00975930312069
0.00990943690932
0.0100022524907
0.0100574701591
0.01008925247
0.0101068495928
0.0101162378582
0.0101209716466
0.0101231363136
0.0101238778199
0.0101238379599
0.010125091822
0.0101277787311
0.0101313136651
0.0101353015555
0.0101394777993
0.0101435767383
0.0101471930545
0.0101496509297
0.0101497179142
0.0101452162224
0.0101323810121
0.0101050726563
0.0100536349207
0.00996379643156
0.00981514171622
0.00958011848216
0.00922147817912
0.00868998333736
0.00791555003398
0.00679060813116
0.00514152734587
0.00379975772161
0.00380182376802
0.00513488747559
0.00676168303386
0.0078763141926
0.00864427234421
0.00917240951917
0.00952903570819
0.00976438746552
0.00991442322195
0.0100070121893
0.0100618729552
0.0100931815753
0.0101102025794
0.0101189317007
0.0101229403055
0.0101243294594
0.0101242687773
0.0101248801074
0.0101271431926
0.010130348662
0.0101340894267
0.0101381273243
0.0101422635072
0.0101462701328
0.0101497670685
0.010152090653
0.0101520133564
0.0101473572643
0.010134349101
0.0101068445288
0.0100551766881
0.00996508697499
0.00981616208528
0.0095808913287
0.00922206648891
0.00869050233036
0.00791623277887
0.00679173594086
0.00514405363084
0.00380371548551
0.00380352499202
0.00513804809732
0.00676542856817
0.00788052020848
0.00864879994249
0.00917716213178
0.00953389617641
0.00976925065522
0.00991915716465
0.010011490601
0.0100659663106
0.0100967749606
0.0101131969923
0.0101212466171
0.0101245132112
0.0101251190391
0.0101252023371
0.0101269615269
0.0101297521259
0.0101331679992
0.0101369525811
0.0101409450487
0.0101449860229
0.0101488762263
0.0101522540449
0.0101544630911
0.0101542766453
0.0101495101442
0.0101363838624
0.0101087400363
0.0100568920708
0.0099665887634
0.00981741613497
0.00958189654044
0.00922286004172
0.00869117285632
0.00791698612183
0.00679284620085
0.00514657032979
0.00380794094616
0.00380521294013
0.00514114557453
0.00676907481413
0.00788458958312
0.00865314139418
0.00918167474724
0.00953846490813
0.00977377401276
0.0099235097732
0.010015550809
0.010069610893
0.0100998952409
0.010115698709
0.0101230547907
0.0101255712927
0.0101257198016
0.0101269985975
0.0101293666754
0.0101324141394
0.0101358852093
0.0101396263471
0.0101435238473
0.0101474533479
0.0101512387732
0.0101545321096
0.010156680085
0.0101564573522
0.0101516693854
0.0101385181571
0.0101108260931
0.0100588838246
0.0099684335915
0.00981906342349
0.00958331722904
0.00922406015801
0.00869220343486
0.00791800787793
0.00679409356476
0.00514915579558
0.00381239418688
0.00380688265219
0.00514415330917
0.00677256654382
0.00788842954226
0.00865716444824
0.00918577795382
0.00954253515435
0.00977772069283
0.00992721990564
0.0100189157517
0.0100725205406
0.0101022523375
0.0101174183494
0.0101240702522
0.0101258422799
0.0101267998457
0.0101288090756
0.0101315025615
0.0101346321952
0.0101380703522
0.0101417202435
0.0101455080247
0.0101493454571
0.0101530643835
0.0101563374455
0.0101585156877
0.0101583649145
0.0101536740945
0.0101406221379
0.010113005483
0.0100610877447
0.00997059847429
0.00982112174581
0.0095852172342
0.00922577636819
0.00869374562939
0.00791947919358
0.00679565864497
0.00515193467942
0.00381706675692
0.003808524857
0.0051470319143
0.00677580886713
0.00789187308397
0.00866062221086
0.00918914484564
0.00954570969754
0.00978063287542
0.0099297819891
0.0100210473078
0.0100741361029
0.0101032752922
0.0101177809262
0.0101237207712
0.0101253898679
0.0101273030084
0.0101297409921
0.0101325666039
0.0101356815443
0.0101390321096
0.010142571005
0.0101462638931
0.0101500415464
0.0101537608075
0.0101571055676
0.0101594267587
0.0101594766482
0.0101550242619
0.0101422207145
0.0101148336617
0.0100631003798
0.00997273120305
0.00982330488258
0.00958738986569
0.00922789221243
0.00869577656234
0.00792147386521
0.00679769977608
0.00515507918936
0.00382198459957
0.00381012286136
0.00514968769725
0.00677858830772
0.00789456382817
0.00866300578958
0.00919111908787
0.00954719935528
0.00978161085666
0.00993021205509
0.0100209001312
0.0100733715036
0.0101018534462
0.0101156623606
0.0101208816997
0.0101233101765
0.0101257790821
0.0101284342602
0.010131278054
0.0101343196772
0.0101375508512
0.0101409759075
0.0101445902513
0.0101483579404
0.0101521563646
0.010155672082
0.0101582542343
0.0101586404391
0.0101545776938
0.0101421889126
0.010115214635
0.0100638723691
0.00997385649953
0.00982473917568
0.00958909305797
0.00922982163942
0.00869787893713
0.00792374113873
0.00680011623362
0.005158585592
0.00382712097634
0.00381165564473
0.00515195150159
0.00678050266634
0.00789582045407
0.008663349565
0.00919046762018
0.00954553828418
0.00977899968039
0.00992671138923
0.0100165728388
0.0100682569897
0.0100959748611
0.0101090284236
0.0101139998484
0.0101171676027
0.0101199678545
0.0101226826132
0.0101254597153
0.0101283675935
0.0101314574109
0.0101347704562
0.0101383341617
0.0101421435216
0.0101460898354
0.0101498671801
0.010152815789
0.0101536622537
0.0101501349986
0.0101383356287
0.0101119904459
0.0100613063958
0.00997198455861
0.00982359473046
0.00958871200763
0.0092302145333
0.00869901012819
0.00792554632504
0.00680245760252
0.00516222021696
0.00383241499553
0.00381307390124
0.00515341627674
0.00678067097696
0.00789425152721
0.00865976564543
0.00918485337969
0.00953800791572
0.00976977893017
0.00991603230945
0.0100046575366
0.0100552781693
0.0100820586939
0.0100942614718
0.0100995163054
0.010103126644
0.0101060427349
0.0101087091227
0.0101113526754
0.0101140874655
0.0101170138163
0.0101202086748
0.0101237385295
0.0101276202964
0.0101317608193
0.0101358559806
0.0101392461731
0.0101406472756
0.0101377788287
0.0101267414698
0.0101012753699
0.0100516073543
0.00996347203351
0.00981646584581
0.00958317288588
0.00922642604993
0.00869702833868
0.00792530834014
0.00680370348231
0.00516546339091
0.00383774507645
0.00381428730938
0.00515334341119
0.00677747531292
0.00788734827576
0.00864891471506
0.00917022031916
0.0095199674003
0.00974885551317
0.00989275207029
0.00997950471571
0.0100286385729
0.010054220201
0.0100655403105
0.0100712418114
0.0100750111286
0.0100778969061
0.0100804250182
0.0100828681166
0.0100853873311
0.0100881209682
0.0100911828833
0.0100946706991
0.010098622442
0.0101029589154
0.0101073840945
0.010111238414
0.0101132396416
0.0101111231181
0.0101010215503
0.0100767295395
0.010028549515
0.00994231005963
0.00979768221955
0.00956729016331
0.00921391008836
0.00868818699778
0.00792020414555
0.00680203349297
0.00516746111835
0.00384295074081
0.00381506603263
0.0051500939559
0.00676768360566
0.0078704187134
0.00862483292503
0.00913955253216
0.0094835747007
0.0097077704596
0.00984797390583
0.00993192408313
0.00997896200071
0.0100029740911
0.0100136321131
0.0100194586094
0.0100231763477
0.0100259095797
0.0100282142837
0.0100303995126
0.0100326578081
0.0100351599468
0.0100380522696
0.0100414582296
0.010045435652
0.0100499195491
0.0100546250239
0.0100589024288
0.0100614950204
0.0100601856704
0.0100511861851
0.0100284146993
0.0099823358148
0.00989896687448
0.00975814128933
0.00953259396539
0.00918506592995
0.00866600824622
0.00790512638629
0.00679391634833
0.00516633744548
0.0038476186516
0.00381498727325
0.00514079067497
0.00674580930005
0.00783573394051
0.00857795601553
0.00908184812326
0.00941674908226
0.0096336725149
0.00976832326037
0.00984820677421
0.00989234060716
0.00991430570821
0.00992431501824
0.00992992512384
0.00993340857143
0.00993587185761
0.00993788399026
0.00993976607289
0.00994172362098
0.00994395119147
0.00994662337212
0.0099498829051
0.00995380464297
0.00995833989223
0.00996321977777
0.00996782424961
0.00997094740919
0.00997046292935
0.00996272962722
0.00994188586977
0.00989867848074
0.00981945542078
0.00968436108679
0.00946637693058
0.00912829242133
0.0086203840159
0.00787189561732
0.0067735292971
0.00515896828728
0.00385113787937
0.00381306308552
0.00511976785037
0.00670200450267
0.00777024522011
0.00849281027343
0.00897985418236
0.00930097814649
0.00950719712889
0.00963388980676
0.00970811721004
0.00974836053452
0.00976771561179
0.00977700133832
0.00978213339221
0.00978524168127
0.0097873693711
0.00978905747694
0.00979060989998
0.00979224178525
0.00979416071708
0.00979655797328
0.0097995903822
0.00980334845151
0.0098078009315
0.00981270656948
0.009817492219
0.00982103577363
0.00982135579593
0.0098150422354
0.00979657403376
0.00975713951521
0.00968361822937
0.00955668832573
0.00934979895336
0.00902597517834
0.00853548056739
0.0078071174077
0.00673069867699
0.00513927412741
0.00385206543156
0.00380750063431
0.00507784001887
0.00662105761403
0.00765449409319
0.00834695789891
0.00880908944503
0.00911043463081
0.00930168120648
0.00941753059238
0.00948426484305
0.00951952734822
0.00953596515796
0.0095440612977
0.00954846721717
0.00955109489981
0.00955285430931
0.0095542155269
0.00955544882861
0.00955676285711
0.0095583651395
0.00956045035364
0.00956318482149
0.00956667208301
0.00957090334801
0.00957567219475
0.0095804725645
0.00958430042874
0.00958537889806
0.00958062224261
0.00956499227482
0.00953031811659
0.00946427327277
0.00934838100231
0.00915690678296
0.00885346708887
0.00838867866507
0.00769115447828
0.0066500486501
0.00509783221624
0.00384816599072
0.00379461928785
0.00499890889604
0.00647823124446
0.0074583557351
0.00810683000619
0.00853384008692
0.00880815318304
0.00897949711597
0.00908132757906
0.00913865750556
0.00916788152557
0.00918115076489
0.00918779173126
0.00919138632261
0.00919353453845
0.0091949781578
0.00919608383999
0.00919707152005
0.00919812781346
0.00919945129544
0.0092012282206
0.0092036257291
0.00920675985454
0.00921064892064
0.00921512920107
0.00921977735262
0.00922373702975
0.00922549297269
0.00922237856623
0.00920998998345
0.00918102910429
0.00912427987592
0.00902251845188
0.00885135340202
0.00857557478697
0.00814679576365
0.00749409280458
0.00650686184286
0.00501810986646
0.00383473524514
0.00376803874808
0.00485863884937
0.00623765731366
0.00713938764606
0.00772614396045
0.00810568294417
0.00834465511107
0.00849076953541
0.00857537583488
0.00862152116114
0.00864382618902
0.00865376128406
0.0086587317801
0.00866147747315
0.00866319762152
0.00866442576214
0.00866539639364
0.00866626146252
0.00866717356381
0.00866830881015
0.00866983507894
0.00867190755545
0.00867464935792
0.00867811305429
0.00868218798484
0.00868653695138
0.00869046981581
0.0086927805311
0.00869130761372
0.00868243525701
0.00865997100846
0.00861419423642
0.0085296675563
0.0083840552221
0.0081441941586
0.00776376976553
0.00717364577758
0.0062654281182
0.00487565656424
0.00380465967467
0.00371607810087
0.00461702328722
0.00584259713219
0.00663206978476
0.0071347512216
0.00745227158791
0.00764686702893
0.00776248669574
0.00782707933569
0.00786076313518
0.00787583028365
0.00788257519785
0.00788601756314
0.00788812077763
0.00788965405774
0.00789091486544
0.00789199948639
0.00789298415465
0.00789398165553
0.00789513657356
0.0078965929857
0.00789847946835
0.00790090839846
0.00790397594218
0.00790763665443
0.00791163162216
0.0079154362558
0.00791818071282
0.00791827233444
0.0079129964531
0.00789749764862
0.0078639486664
0.00779934210144
0.00768433911076
0.00748909506896
0.00717112426056
0.00666542333469
0.00586951446066
0.00463013733926
0.00374517372794
0.00362078847192
0.00421182517912
0.00520446537114
0.00583519799288
0.00622545751787
0.00646407335162
0.00660487459988
0.0066852228824
0.00672775360775
0.00674834128967
0.00675650982055
0.0067601862447
0.00676226843008
0.00676393474795
0.00676550894143
0.0067670443073
0.00676850012785
0.00676988354397
0.00677124649026
0.00677269147825
0.00677433141222
0.00677625875438
0.00677854708932
0.00678132084155
0.00678462421191
0.00678825791792
0.00679184945948
0.0067948674564
0.00679629752787
0.00679439731385
0.00678581840037
0.00676502856519
0.00672219750617
0.00664224611106
0.00650057211302
0.00626134605234
0.00586780474141
0.0052301179501
0.00421858919826
0.00363852381635
0.00346632761682
0.00356552578504
0.00418990595888
0.00458704308293
0.00482339866627
0.00496109980093
0.00503780293097
0.00507896043693
0.00509879557494
0.0051070098958
0.00510962405924
0.0051110262692
0.00511241787944
0.00511422891424
0.00511640433541
0.00511880887065
0.00512132745303
0.00512390378064
0.00512652436701
0.00512923313058
0.00513209518257
0.00513515194684
0.00513840844137
0.00514194888529
0.00514589782079
0.00515010649811
0.00515432505433
0.0051583102833
0.00516156896436
0.00516328255456
0.00516168324006
0.00515383977566
0.00513392355591
0.00509276102386
0.00501395513274
0.00487305759133
0.00462934912682
0.00421919253388
0.00356525118332
0.00347146536635
0.00333040773895
0.00345237582219
0.003592637129
0.00367940641353
0.00372707919737
0.00375219993951
0.0037647523267
0.00377093864409
0.00377354597761
0.00377449428845
0.00377496536766
0.00377575087332
0.00377707640161
0.00377897917112
0.00378138776084
0.00378424268884
0.0037874104792
0.00379084903024
0.00379456399272
0.00379855258848
0.00380280009624
0.00380727956396
0.00381195752181
0.00381682859982
0.00382190708005
0.00382712477539
0.00383239622535
0.0038376582897
0.00384277887509
0.00384760349502
0.00385176187367
0.00385470552695
0.003855069183
0.00385070842414
0.00383697754408
0.00380678618283
0.00374719535474
0.0036401164124
0.00347148357435
0.00334103708322
0.00345857287976
0.00416158034256
0.0046623215192
0.00496315672877
0.00513771683762
0.00523659795854
0.00529101853623
0.00532044713353
0.00533620734239
0.00534497805235
0.00535027378089
0.00535399693647
0.00535704913643
0.00535988097098
0.00536268316542
0.00536553842505
0.00536847826081
0.00537150623431
0.00537461087677
0.00537777133868
0.00538098131686
0.00538425910477
0.00538755836268
0.00539084773897
0.00539411002068
0.00539730957146
0.00540038795895
0.00540322315763
0.005405553057
0.00540686760927
0.0054060757183
0.00540111785558
0.00538798079624
0.005359676884
0.00530392084537
0.00520089319371
0.00501813028166
0.0047045778244
0.00418651809775
0.00346586618989
0.00416009092151
0.00757715441632
0.00929720683802
0.0103186849078
0.0109355923199
0.0113040863602
0.011518539602
0.0116399301954
0.0117065546822
0.011742619761
0.0117621934397
0.0117734097202
0.0117805255835
0.0117857852376
0.011790251601
0.011794445751
0.0117985898219
0.0118027786581
0.0118070414199
0.0118113750519
0.0118157786461
0.0118202758659
0.0118248207428
0.0118293468206
0.0118337881396
0.0118380049841
0.0118417010728
0.0118442771254
0.0118444573974
0.0118397778093
0.0118254333438
0.0117928451864
0.01172685779
0.011602831635
0.0113810949897
0.0110009502001
0.0103670505206
0.00932404713957
0.00758412691263
0.00416171436661
0.00465985302349
0.00929726394794
0.0116437326739
0.0130811783792
0.0139813156344
0.01454050495
0.0148801525344
0.0150809362068
0.0151961010234
0.0152607679475
0.0152967639397
0.0153173230565
0.0153298950851
0.0153385819507
0.0153454831782
0.0153516523698
0.015357579725
0.0153634878685
0.015369459983
0.0153755187144
0.0153816694807
0.0153879050167
0.0153941677198
0.0154003620965
0.0154063359786
0.0154117880493
0.0154161029799
0.0154180613866
0.015415256361
0.0154032063115
0.0153737559595
0.0153130091025
0.0151979824629
0.0149929756019
0.0146435140678
0.0140691587333
0.013147700768
0.0116841821862
0.00931264266086
0.00465784646865
0.00496026648761
0.0103187765399
0.0130812422319
0.0148149954631
0.0159297376006
0.0166420920512
0.0170881142502
0.0173601765163
0.0175212526257
0.0176142862138
0.0176671863557
0.0176975425371
0.0177157529663
0.0177277679963
0.0177367799078
0.0177444497055
0.0177515929733
0.0177585921211
0.0177656095496
0.0177727022897
0.0177798851083
0.0177871355518
0.0177943770093
0.0178014735937
0.0178081743862
0.0178139867237
0.0178179303801
0.017818112946
0.0178109568299
0.0177900322985
0.0177441564236
0.0176549906911
0.017493510394
0.0172162022316
0.0167590127097
0.0160298491553
0.0148918909447
0.0131301227192
0.0103403180002