/*--------------------------------*- C++ -*----------------------------------*\
| =========                 |                                                 |
| \\      /  F ield         | foam-extend: Open Source CFD                    |
|  \\    /   O peration     | Version:     4.1                                |
|   \\  /    A nd           | Web:         http://www.foam-extend.org         |
|    \\/     M anipulation  |                                                 |
\*---------------------------------------------------------------------------*/
FoamFile
{
    version     2.0;
    format      ascii;
    class       volScalarField;
    location    "0.9";
    object      nut;
}
// * * * * * * * * * * * * * * * * * * * * * * * * * * * * * * * * * * * * * //

dimensions      [0 2 -1 0 0 0 0];

internalField   nonuniform List<scalar> 
96000
(
0.000157599405551
0.000160713683793
0.000164190000609
0.000166304549561
0.000167456858571
0.000168064689482
0.000168379046733
0.000168543555925
0.000168632069869
0.000168685536942
0.000168722778823
0.000168753924747
0.000168783096168
0.000168812470019
0.000168842750048
0.000168874257416
0.000168907034541
0.000168941013731
0.000168976028442
0.000169011660963
0.000169047884406
0.000169085182348
0.000169122727072
0.000169160176832
0.0001691974986
0.000169234431765
0.000169270616665
0.000169305473188
0.000169337701828
0.000169365017527
0.000169381761959
0.000169377376563
0.000169328148738
0.000169191174156
0.000168880111556
0.000168245532232
0.000167014582891
0.000164757891342
0.000161055568792
0.000157676972093
0.000160702295058
0.000108873189581
0.000118361268963
0.00012397918996
0.00012721945494
0.000129087219045
0.000130141776676
0.00013072800938
0.000131045863151
0.000131220859646
0.00013132016914
0.00013138324094
0.000131428883692
0.000131467459112
0.000131503340886
0.000131538840975
0.000131574773505
0.000131611494694
0.000131649042908
0.000131687167978
0.000131725901058
0.000131765401702
0.000131805226819
0.000131844916211
0.000131884169273
0.00013192233182
0.000131957985803
0.000131988646939
0.000132008539026
0.000132007010542
0.000131961457492
0.000131832265669
0.000131543366991
0.000130971416984
0.000129901489999
0.00012800005404
0.000124693872446
0.000118996382486
0.000109340430354
0.000160719442356
0.000164163675393
0.000118348160406
0.000131852391118
0.000139729843967
0.000144408484409
0.000147215499455
0.000148874461483
0.000149838207836
0.000150381983212
0.00015068669386
0.000150857475681
0.000150958713758
0.000151024387316
0.000151073574551
0.000151115360116
0.000151154514131
0.000151193041903
0.000151231906144
0.000151271368793
0.000151311384173
0.000151352002427
0.000151393273126
0.000151434766833
0.000151475940213
0.000151516153162
0.000151554120782
0.000151587117482
0.000151609979007
0.000151611854809
0.000151572968649
0.000151454881492
0.000151192706323
0.000150671915284
0.000149714830754
0.000148030537218
0.00014517920504
0.000140417966886
0.000132430855016
0.000118689871032
0.000164090571075
0.000166272065358
0.000123968136402
0.000139732382366
0.00014899395503
0.00015462548015
0.000158100437813
0.000160221011116
0.000161493430309
0.000162235381093
0.000162661576257
0.000162903762772
0.0001630454486
0.000163133621701
0.000163195327306
0.000163244422504
0.000163288237214
0.000163330129467
0.000163371724467
0.000163413627846
0.000163455973449
0.000163498872686
0.000163542252211
0.000163585632993
0.000163628397689
0.00016366948436
0.000163706865624
0.00016373636783
0.000163750067505
0.000163732243707
0.000163654832645
0.000163466470987
0.000163083079953
0.000162364314034
0.000161099098716
0.000158955254154
0.000155439451557
0.000149727592135
0.000140354069578
0.000124316942096
0.000166165348712
0.000167422658323
0.000127212084228
0.000144415722914
0.000154630452862
0.000160956943273
0.000164943265316
0.000167434039196
0.000168965590968
0.000169881706859
0.000170419550799
0.00017073025908
0.000170912344868
0.000171023710658
0.000171098605435
0.000171155417109
0.000171204013061
0.000171249204413
0.00017129334536
0.000171337406166
0.000171381725774
0.000171426455204
0.000171471446087
0.000171516174825
0.000171559878869
0.000171601085592
0.000171636982451
0.000171661912788
0.000171665260207
0.000171626767827
0.000171511048885
0.000171256021171
0.000170762724654
0.000169872222226
0.00016835108929
0.000165841762175
0.000161820065436
0.000155417629111
0.000145090481107
0.000127590590945
0.000167313291875
0.000168030736316
0.000129084039108
0.000147228421533
0.000158111686431
0.000164949884846
0.000169327555891
0.000172111722661
0.000173855699949
0.000174919435466
0.000175555061832
0.000175927753169
0.000176147441741
0.000176280945342
0.000176368679671
0.000176433000209
0.000176486194662
0.000176534466795
0.000176580890403
0.000176626816094
0.000176672784707
0.000176718982783
0.00017676523346
0.000176810960917
0.000176855228116
0.000176896160862
0.000176930187804
0.000176950242809
0.000176943248359
0.000176884943418
0.000176733753894
0.000176418931067
0.0001758301186
0.000174794958465
0.000173064893355
0.000170266517076
0.000165857649164
0.000158946215185
0.000147948161368
0.000129488516196
0.000167926683216
0.000168345909693
0.000130142286236
0.000148892590507
0.000160238266778
0.000167447193867
0.00017211851159
0.000175129488294
0.000177042226864
0.000178226273019
0.000178943647604
0.000179369376379
0.000179621949321
0.000179775116584
0.000179874307016
0.000179945274136
0.000180002419065
0.000180053161225
0.000180101268381
0.000180148454702
0.000180195446862
0.000180242485716
0.000180289370839
0.000180335483599
0.000180379710765
0.000180419818471
0.000180451531868
0.00018046653809
0.000180449628915
0.000180373166904
0.000180190552833
0.000179824257965
0.000179155391882
0.000178002051941
0.000176105622857
0.000173083118432
0.000168382565857
0.000161100867784
0.000149635961789
0.000130554365174
0.000168240237078
0.000168511582033
0.000130732125425
0.000149861466781
0.000161516734152
0.00016898537747
0.00017386945402
0.000177049333207
0.000179090762995
0.000180368532867
0.000181150909829
0.000181619578609
0.000181899178553
0.000182068664355
0.000182177359057
0.000182253734722
0.000182313914971
0.000182366372346
0.000182415465014
0.000182463229967
0.000182510563246
0.000182557758104
0.000182604614402
0.000182650463907
0.000182694047924
0.000182732822556
0.000182761922364
0.000182771992286
0.000182746082847
0.000182653856427
0.000182444822611
0.000182036355603
0.000181303411181
0.000180057534935
0.000178033691575
0.000174843564722
0.00016993059179
0.000162388273519
0.000150608679342
0.000131135858448
0.000168399605609
0.000168601083289
0.000131052861562
0.000150409563533
0.000162263879175
0.000169907268358
0.000174939383203
0.000178239794374
0.000180375048083
0.000181722404701
0.000182553787332
0.000183055183081
0.000183355499999
0.000183537418068
0.000183653151865
0.00018373323537
0.000183795147679
0.000183848199116
0.000183897239372
0.000183944576006
0.000183991244621
0.000184037593907
0.000184083435713
0.000184128068603
0.000184170115151
0.000184206788921
0.000184232760782
0.000184237849599
0.00018420375627
0.000184098098693
0.000183867510578
0.000183425686441
0.000182643316565
0.000181327647542
0.000179209794453
0.000175898860553
0.000170836856229
0.000163117919443
0.000151134100853
0.00013142527417
0.000168471576809
0.000168655393963
0.000131230272733
0.000150717995693
0.000162694529371
0.000170450114387
0.000175580408285
0.000178962792123
0.000181163170331
0.000182559562518
0.000183425855502
0.000183950678078
0.000184265744924
0.000184456276022
0.000184576533893
0.000184658550431
0.000184720815542
0.000184773278561
0.000184821160793
0.000184866988154
0.000184911925354
0.000184956364188
0.000185000134665
0.000185042524324
0.000185082079135
0.000185115827998
0.000185138096408
0.000185138105084
0.000185096575086
0.000184979654478
0.000184731959398
0.000184264658558
0.000183445647788
0.00018207952361
0.000179895308566
0.000176501223642
0.000171339477292
0.000163506622658
0.000151396503338
0.000131552339269
0.000168500754024
0.000168693223109
0.000131331312623
0.00015089164426
0.000162940250384
0.000170764818281
0.000175957388784
0.000179393002619
0.000181636415268
0.000183065565181
0.00018395528386
0.000184495709134
0.000184820313416
0.000185015980459
0.00018513836827
0.000185220556139
0.000185281747854
0.000185332353678
0.000185377893605
0.000185421052721
0.000185463099576
0.000185504473417
0.000185545030063
0.000185584066117
0.000185620075126
0.000185649972051
0.000185667850836
0.000185662516973
0.00018561402386
0.000185487520111
0.000185226279546
0.000184739827537
0.000183894339012
0.000182492880934
0.000180263499456
0.000176814421998
0.000171588702928
0.000163685664198
0.000151500805017
0.000131583422084
0.000168504086921
0.000168724771117
0.000131395525052
0.000150995089773
0.00016308462154
0.000170949895276
0.000176180314777
0.000179648922171
0.000181919402407
0.000183369249007
0.000184273674887
0.00018482359539
0.000185153550599
0.000185351476976
0.000185473944996
0.000185554728155
0.000185613540786
0.000185661126764
0.00018570320469
0.000185742596092
0.000185780651616
0.0001858178651
0.000185854120985
0.000185888732663
0.000185920183077
0.000185945328212
0.000185958119488
0.000185947095867
0.000185891886275
0.000185756999407
0.000185484875905
0.000184984035871
0.00018411967997
0.000182694080599
0.000180434965575
0.000176950964903
0.000171686087395
0.000163742129462
0.000151515297504
0.000131575643256
0.000168515315695
0.000168754097914
0.000131441662864
0.000151062183527
0.000163174572866
0.000171063273367
0.000176315965211
0.000179804261258
0.000182091018946
0.000183553204662
0.000184466127769
0.00018502107219
0.00018535321869
0.000185551132752
0.000185671985809
0.000185750027609
0.000185805305801
0.000185848801361
0.000185886386395
0.000185920988033
0.000185954037809
0.000185986068941
0.000186017012344
0.000186046215452
0.000186072172185
0.000186091718694
0.000186098734213
0.000186081604275
0.000186019707124
0.000185877167618
0.000185595946563
0.000185084023214
0.000184206105886
0.000182764108176
0.000180485788404
0.000176985833122
0.000171710060256
0.000163759210286
0.000151529077129
0.000131584169538
0.000168535513622
0.000168783399173
0.000131480094225
0.000151112082701
0.000163237280349
0.00017113929507
0.000176404803252
0.000179904492721
0.000182200622369
0.000183669653206
0.000184586887725
0.000185143759431
0.000185475815831
0.000185672022343
0.000185789951874
0.000185864147858
0.000185914914564
0.000185953393162
0.000185985582908
0.000186014501919
0.000186041650115
0.000186067608686
0.000186092359544
0.00018611530111
0.000186134954779
0.000186148162423
0.000186148779976
0.000186125121103
0.000186056478875
0.000185906763025
0.000185617706551
0.000185107457747
0.000184233062765
0.000182794337143
0.000180518114789
0.000177016310676
0.000171732754557
0.000163775643983
0.000151540884069
0.00013159798539
0.000168566368442
0.000168813371466
0.000131515150448
0.000151153823289
0.000163286500565
0.000171196252206
0.000176469186846
0.000179975361568
0.000182276659009
0.000183749101075
0.000184667953849
0.000185224675354
0.000185555059657
0.000185748323362
0.000185862295661
0.000185931755688
0.000185977179282
0.000186009846995
0.000186035862673
0.000186058322459
0.000186078794194
0.000186097921511
0.000186115738824
0.000186131701723
0.00018614437597
0.000186150639911
0.000186144421342
0.00018611404909
0.000186054796313
0.000185917296134
0.000185640794537
0.000185132619591
0.000184256414458
0.00018281503247
0.000180535311684
0.000177029869086
0.00017174322578
0.0001637851909
0.000151551664223
0.000131617005229
0.000168606982921
0.000168844334867
0.000131549102361
0.000151192135425
0.000163329540579
0.000171244035899
0.000176521399171
0.000180031248435
0.000182335238434
0.000183809008795
0.000184727780235
0.000185282998341
0.000185610618282
0.000185800018353
0.000185909242146
0.000185973235807
0.000186012625789
0.000186038812055
0.000186057983795
0.000186073324926
0.000186086480024
0.000186098149941
0.000186108436921
0.000186116861846
0.00018612214055
0.000186126293408
0.000186135129527
0.000186122826286
0.000186066919749
0.000185930417968
0.000185653943605
0.000185144869608
0.000184266898591
0.000182823394894
0.000180541413733
0.000177034387136
0.000171747077748
0.000163790879932
0.00015156187634
0.000131639742575
0.000168655983053
0.000168876248203
0.000131582706321
0.000151228949226
0.000163369724945
0.000171287391332
0.00017656756936
0.00018007952742
0.00018238478743
0.000183858642729
0.000184776279477
0.000185329099526
0.000185653176658
0.000185838027152
0.000185941866635
0.000185999792379
0.000186032569373
0.000186051697622
0.00018606347236
0.000186071161849
0.000186076487965
0.000186080215499
0.000186082580452
0.000186085427405
0.00018610845689
0.000186129706611
0.000186141493945
0.000186130552096
0.000186074982395
0.000185937970821
0.000185660297074
0.00018514951608
0.000184269621942
0.000182824048584
0.000180540391928
0.000177032677207
0.000171745993609
0.000163793138117
0.000151570649844
0.000131664039763
0.000168711800856
0.000168909065776
0.000131616264114
0.00015126515092
0.000163408612262
0.000171328619268
0.000176610730643
0.000180123915782
0.000182429618021
0.000183902801073
0.000184818625748
0.000185368428166
0.000185688398393
0.000185868169019
0.000185966117312
0.000186017488105
0.000186043168565
0.000186054781188
0.000186058712736
0.00018605833308
0.00018605543778
0.000186051038039
0.000186062025541
0.000186086797064
0.000186113285978
0.000186136324787
0.000186148522296
0.00018613709023
0.000186080373771
0.000185941723512
0.000185662046712
0.00018514908179
0.000184266977609
0.000182819300601
0.000180534214915
0.000177026088946
0.000171740613198
0.000163791801566
0.00015157683779
0.000131688146869
0.000168773501107
0.000168942570821
0.000131649700606
0.000151300950326
0.000163446718081
0.000171368619912
0.000176652163998
0.000180166078237
0.000182471726708
0.000183943768515
0.000184857322118
0.000185403673192
0.000185719113195
0.00018589338734
0.000185985039048
0.000186029442299
0.000186047634918
0.000186051354731
0.000186047099197
0.000186038339507
0.000186027220783
0.000186042650262
0.000186066715991
0.000186094201967
0.000186121552839
0.000186144237592
0.000186155258829
0.000186142193614
0.000186083512696
0.000185942625116
0.000185660554407
0.000185145100804
0.000184260481189
0.000182810656414
0.000180524006426
0.000177015504949
0.000171731286206
0.000163786675475
0.000151579709599
0.000131710725233
0.000168840366938
0.000168976417219
0.00013168281808
0.000151336322087
0.000163484212019
0.000171407761139
0.000176692442532
0.000180206770371
0.000182512040238
0.000183982603008
0.000184893549006
0.00018543610355
0.000185746665749
0.000185915101479
0.000186000105985
0.00018603721496
0.000186047609862
0.000186043160913
0.000186030482804
0.000186014222027
0.000186028815137
0.000186050786395
0.000186076923748
0.000186104595424
0.000186130973546
0.000186152158676
0.000186161251766
0.000186146004411
0.000186084971755
0.000185941581337
0.000185656857332
0.000185138740858
0.000184251491711
0.000182799355289
0.000180510992505
0.000177001918152
0.000171718746534
0.000163778110152
0.000151579051018
0.000131731250046
0.000168912498443
0.000169010519368
0.000131715630098
0.000151371278054
0.000163521172194
0.00017144615492
0.00017673172533
0.000180246192556
0.000182550801598
0.000184019604037
0.000184927654685
0.000185466128543
0.000185771531077
0.000185933841365
0.000186011932987
0.000186041501397
0.00018604388843
0.000186031100924
0.000186010184261
0.000186021136479
0.000186039860176
0.000186063411796
0.000186089346541
0.000186115762801
0.000186140393714
0.000186159476225
0.000186166322369
0.000186148737574
0.000186085298582
0.000185939423411
0.000185652115554
0.000185131348722
0.000184241481345
0.00018278692864
0.000180496695948
0.000176986729864
0.000171704196301
0.000163767029578
0.000151575470323
0.00013174981155
0.000168990331752
0.000169045159397
0.00013174826707
0.000151405856276
0.000163557493378
0.000171483632568
0.000176769811254
0.000180284137913
0.000182587815287
0.000184054594414
0.000184959499029
0.000185493654479
0.000185793665748
0.000185949639312
0.000186020629876
0.000186042504665
0.000186036769925
0.000186015811203
0.000186018932525
0.000186034092158
0.000186054392095
0.000186077545043
0.000186102079032
0.000186126578708
0.000186149067828
0.000186165930638
0.000186170572518
0.00018615082394
0.000186085248718
0.000185937197206
0.000185647631726
0.000185124471769
0.000184232184716
0.000182775265951
0.000180483071278
0.000176971925873
0.000171689514878
0.000163755117614
0.000151570265778
0.000131767123072
0.000169074154158
0.000169079926796
0.000131780386413
0.000151439667602
0.000163592775866
0.000171519735006
0.00017680619715
0.000180320065207
0.00018262250507
0.000184086981633
0.000184988489307
0.000185518099028
0.000185812521727
0.000185962001357
0.000186025771107
0.000186039877637
0.000186026118344
0.000186020501791
0.00018603245347
0.00018604933302
0.000186069279595
0.000186091007785
0.000186113612524
0.000186135979803
0.000186156336801
0.0001861711949
0.000186174009412
0.000186152599588
0.000186085469317
0.000185935886491
0.000185644705637
0.000185119719056
0.000184225454974
0.000182766447614
0.000180472336204
0.000176959793557
0.000171676974581
0.000163744466956
0.000151565170365
0.000131784243262
0.000169163518111
0.000169114315358
0.000131811590196
0.000151472231661
0.000163626470111
0.00017155378068
0.000176840024334
0.000180352948632
0.000182653704936
0.000184115496909
0.000185013284536
0.000185538095141
0.000185826744665
0.000185969606174
0.000186026094305
0.000186032462288
0.000186021583869
0.000186032169601
0.000186046358798
0.000186063160809
0.000186081768741
0.000186101599596
0.000186122111153
0.000186142441849
0.000186160980206
0.00018617434262
0.000186176006489
0.00018615376713
0.000186086029855
0.000185935902187
0.000185644071425
0.000185118153639
0.000184222645359
0.000182762114348
0.000180466392439
0.000176952456502
0.000171668848641
0.000163737349106
0.000151562150048
0.000131802405892
0.000169257738513
0.000169148258874
0.000131841608744
0.000151502931143
0.000163657582917
0.000171584385112
0.000176869540696
0.000180380679057
0.000182679010812
0.000184137500866
0.000185031085644
0.000185550749085
0.000185833398335
0.000185969518973
0.00018601869563
0.000186017569172
0.000186027561847
0.000186040983365
0.000186055563303
0.000186071229391
0.000186088013974
0.000186105786093
0.000186124305521
0.000186142962665
0.000186160235411
0.000186172869059
0.000186174364104
0.000186152427936
0.000186085309449
0.000185935912805
0.000185644707769
0.000185119087433
0.000184223461948
0.000182762385633
0.000180465830073
0.000176950995231
0.000171666699399
0.000163735741088
0.000151563353384
0.000131823341509
0.000169356762445
0.000169181577133
0.000131869960065
0.00015153065267
0.000163684254821
0.000171608899808
0.000176891329938
0.000180399160244
0.000182693747316
0.000184147861478
0.000185036438967
0.000185550395676
0.000185826696443
0.000185955905399
0.00018599780103
0.000186007187073
0.00018602436176
0.000186038888202
0.000186052675683
0.00018606665298
0.000186081391457
0.000186097150033
0.000186113987069
0.000186131462783
0.000186148233243
0.000186161125679
0.000186163625052
0.000186143311584
0.000186078248931
0.000185931099198
0.000185642087824
0.000185118386273
0.000184224276846
0.000182764274046
0.000180468441414
0.000176954101704
0.000171670192522
0.000163740361074
0.000151570567956
0.000131849348533
0.000169461247205
0.000169213912138
0.000131895381063
0.000151552807697
0.000163702465685
0.000171621841228
0.000176898522297
0.000180400286672
0.00018268878088
0.00018413664911
0.000185018829985
0.000185526124133
0.000185795482669
0.00018591747163
0.000185952133029
0.000185979670678
0.000185998697401
0.000186012966871
0.000186025268912
0.000186037260659
0.000186049893724
0.000186063801979
0.00018607930237
0.000186096203847
0.000186113326336
0.000186127525282
0.000186132245948
0.000186114937425
0.000186053467245
0.000185910248598
0.000185625275312
0.000185105564295
0.000184215297726
0.000182758945786
0.000180466623023
0.000176955639188
0.000171674825345
0.000163748378776
0.000151582578386
0.000131880438948
0.000169570630861
0.000169244795973
0.000131915537737
0.000151564506818
0.000163704552657
0.00017161286879
0.000176878323128
0.000180369147083
0.000182647479814
0.000184085910746
0.000184959349237
0.000185458376491
0.000185719790073
0.000185834060358
0.000185876379063
0.000185909139474
0.000185928641722
0.000185941692459
0.000185952017526
0.000185961753039
0.000185972273193
0.000185984521683
0.0001859990819
0.000186016010459
0.000186034252845
0.000186050710177
0.00018605875868
0.000186045740336
0.000185989357883
0.000185851835485
0.000185573059827
0.000185059984301
0.000184176864225
0.000182728183328
0.000180444094409
0.00017694172523
0.000171669516713
0.000163751630976
0.000151594044287
0.000131913596814
0.000169683654184
0.000169273044367
0.00013192476079
0.000151555104671
0.000163675007615
0.000171561979211
0.000176806759029
0.000180278425065
0.00018253987056
0.000183963653341
0.000184824558298
0.000185312735166
0.000185564577092
0.000185670282751
0.000185725216981
0.000185758790711
0.000185777369796
0.000185788506398
0.000185796490437
0.000185803800844
0.000185812186621
0.000185822891889
0.000185836804916
0.000185854179113
0.000185874086411
0.000185893458955
0.000185905662674
0.00018589795151
0.000185847951786
0.000185717892743
0.000185447795042
0.000184944796273
0.000184073467486
0.000182638541766
0.000180370279173
0.000176885485073
0.000171631799808
0.000163732655081
0.000151592770631
0.000131941725235
0.000169797538271
0.000169296485236
0.000131912797532
0.000151505223791
0.000163586184072
0.00017143422024
0.000176642729099
0.000180082038381
0.000182316010521
0.000183717085507
0.000184559674253
0.000185033099502
0.000185272939309
0.000185372887672
0.00018543672983
0.000185469435322
0.000185486093802
0.000185494776676
0.000185500073416
0.000185504780044
0.000185510953927
0.000185520137204
0.000185533478639
0.000185551419846
0.000185573160919
0.000185595708033
0.00018561243852
0.000185610626889
0.000185568050365
0.000185447233952
0.000185188685072
0.000184700195721
0.00018384714786
0.000182434912161
0.000180194126199
0.000176741237024
0.000171522769673
0.000163660603869
0.000151557140255
0.000131953102526
0.000169908535231
0.000169309543003
0.000131857185079
0.000151376633866
0.000163387004566
0.00017116787191
0.000176315910483
0.000179702936679
0.000181893795868
0.000183260466486
0.000184076471745
0.000184529633773
0.000184754093777
0.000184857160938
0.000184918846309
0.000184949136648
0.00018496306319
0.000184968797935
0.000184971110746
0.00018497301509
0.000184976818948
0.0001849843214
0.000184996894345
0.000185015163103
0.000185038467478
0.000185063915835
0.000185084990467
0.000185089204331
0.000185054771303
0.000184944914487
0.000184701211986
0.000184232833187
0.00018340673183
0.000182029600554
0.000179833034387
0.000176433354585
0.000171275900518
0.000163480326354
0.000151445751586
0.000131922327655
0.000170006922753
0.000169302029223
0.000131718913548
0.000151105132799
0.000162994119096
0.000170664720853
0.00017571671305
0.000179023018123
0.000181148994997
0.000182465327245
0.000183243714104
0.000183669404581
0.000183874144134
0.000183978692409
0.000184035823823
0.00018406237797
0.000184072856591
0.000184075295294
0.000184074454864
0.000184073423096
0.000184074678919
0.000184080234745
0.000184091643155
0.000184109693658
0.000184133882746
0.00018416148296
0.000184186253081
0.000184196179026
0.000184170289084
0.000184073086228
0.000183848032973
0.000183406642389
0.000182618558922
0.000181292940684
0.000179163406678
0.000175846865895
0.000170787951744
0.000163104116899
0.000151190931001
0.000131807425765
0.000170078360376
0.000169250372966
0.000131422083233
0.000150576430126
0.000162267498495
0.000169766219715
0.000174673240739
0.000177860912347
0.000179893744293
0.000181139550087
0.000181866680384
0.000182256214304
0.000182436168164
0.000182540543737
0.000182591140431
0.000182612943306
0.000182619609658
0.000182618701976
0.000182614729232
0.000182610767684
0.000182609374302
0.000182612692425
0.000182622413377
0.000182639477883
0.000182663561531
0.000182692204166
0.000182719609087
0.000182734519367
0.000182717251075
0.000182634306788
0.000182432029131
0.000182025535849
0.00018128871891
0.000180034869029
0.000178001293592
0.000174806934423
0.000169897364001
0.000162388966606
0.000150675357256
0.000131527701889
0.000170089208584
0.000169112292856
0.000130844301227
0.000149613844931
0.000160996987662
0.00016823982524
0.000172937778761
0.000175958788026
0.000177863773873
0.000179015021932
0.000179675172837
0.000180018922915
0.000180179218448
0.000180270268383
0.000180312453446
0.000180328857373
0.000180331707203
0.00018032772638
0.000180320978008
0.000180314390726
0.000180310486854
0.000180311438536
0.000180319030616
0.000180334349984
0.000180357298108
0.000180385753616
0.000180414546097
0.000180433490438
0.00018042471003
0.000180357498202
0.000180182255102
0.000179819286023
0.000179148750978
0.000177990355052
0.000176087646627
0.000173064261174
0.000168369946996
0.000161123160058
0.000149720926152
0.000130958095483
0.000169987616625
0.00016880178301
0.000129770678738
0.000147926453667
0.000158850489401
0.000165728132841
0.000170137129071
0.000172933953921
0.00017467113312
0.000175701288345
0.000176277940774
0.000176566378039
0.000176705060429
0.000176779680818
0.000176812705565
0.000176823911157
0.000176823652296
0.000176817491707
0.00017680886782
0.000176800424783
0.00017679455969
0.000176793375238
0.000176798683092
0.000176811714227
0.00017683264789
0.000176859785927
0.000176888727792
0.000176910627848
0.000176909929125
0.000176859534438
0.000176715179173
0.000176404205456
0.000175815502497
0.000174778162402
0.000173045807149
0.000170250952341
0.000165852656293
0.000158977544049
0.0001480378422
0.000129878939433
0.000169665441459
0.000168170692752
0.000127868588212
0.000145075172323
0.000155335231108
0.00016170731046
0.000165729337271
0.000168234519913
0.000169759241574
0.000170640250003
0.000171117013209
0.000171341402654
0.000171455622344
0.000171512128118
0.000171535935348
0.000171542799286
0.000171540741492
0.0001715338657
0.000171524810087
0.000171515811056
0.000171509036385
0.000171506432972
0.000171509737642
0.000171520286677
0.00017153861866
0.000171563564519
0.000171591548853
0.000171615238512
0.000171621850519
0.000171588693448
0.00017147819408
0.00017122670893
0.00017073495366
0.000169845441098
0.000168327155535
0.00016582768008
0.000161823524192
0.000155460716573
0.000145188682052
0.000127955562941
0.000168958849709
0.000166947005902
0.000124565318476
0.000140317286897
0.000149627405431
0.000155309441302
0.000158822934019
0.000160958216329
0.000162222660711
0.000162927380194
0.000163290568935
0.000163449595905
0.000163536609962
0.000163576075274
0.000163592803811
0.000163598023698
0.000163597060865
0.0001635923848
0.000163585723197
0.000163578815
0.000163573520809
0.000163571581132
0.000163574525731
0.000163583644511
0.000163599957984
0.000163622965121
0.000163649860246
0.000163674840645
0.000163688213503
0.000163672366458
0.00016359761558
0.000163411459337
0.000163029965802
0.000162314228628
0.000161055888602
0.000158926787788
0.00015543428663
0.000149763144461
0.000140438269381
0.000124610414051
0.000167572389629
0.000164703747768
0.000118874406722
0.000132335239545
0.000140259202885
0.000144987939624
0.000147831035392
0.000149499991782
0.000150450370822
0.000150951526689
0.000151189134063
0.000151288992553
0.00015134168675
0.000151366074349
0.000151378727141
0.00015138586104
0.000151389828035
0.000151391315394
0.000151391095694
0.00015139021121
0.000151390117402
0.000151392279904
0.000151397919712
0.000151408001607
0.000151423947027
0.000151446250286
0.000151472710452
0.000151498938066
0.000151518512192
0.0001515192624
0.000151480473655
0.000151362849023
0.000151102049228
0.000150584638148
0.000149636014578
0.000147967812087
0.000145141926541
0.00014041769246
0.00013246713731
0.000118842761332
0.000165081711355
0.000161024764835
0.00010923542039
0.000118605278465
0.00012423270041
0.000127499676972
0.000129385221409
0.000130435098343
0.00013099771339
0.000131266542031
0.000131372675676
0.00013141912115
0.000131443913693
0.000131461409626
0.000131479303451
0.000131498642104
0.000131518851197
0.000131539117985
0.000131559190649
0.000131579230249
0.000131600055077
0.000131622654176
0.000131647732723
0.000131675524368
0.000131707185237
0.000131744300815
0.000131785121315
0.000131826368774
0.000131864688437
0.000131893279915
0.000131900916982
0.000131863627489
0.00013174200167
0.000131458579495
0.000130891663545
0.000129823361216
0.000127919486817
0.00012459789144
0.000118849953097
0.000109118720813
0.000161128378945
0.000157677426122
0.000160686884599
0.000164059679501
0.000166133263054
0.000167278249082
0.00016788676555
0.000168193291296
0.000168344123347
0.000168406081628
0.000168428552411
0.000168443786243
0.000168463753756
0.000168494169419
0.000168536337338
0.000168588908419
0.000168650648369
0.000168718878519
0.000168792709713
0.000168872196824
0.000168957367823
0.000169047988998
0.000169143566584
0.000169243436422
0.000169347537853
0.000169456186813
0.000169567930816
0.000169680897226
0.000169793666464
0.000169903182018
0.000170005864944
0.000170092999583
0.000170151745396
0.000170150270833
0.000170038919001
0.00016971085952
0.000169003027187
0.000167616128504
0.000165118602215
0.00016113207743
0.00015793250938
0.000160770516999
0.000176745049907
0.000187347670958
0.000193494753554
0.000197015338164
0.000199007931779
0.000200110932053
0.000200711801886
0.000201034977865
0.000201213759597
0.000201319311315
0.000201390795032
0.000201447120365
0.000201497915346
0.000201547345285
0.000201597293513
0.000201648492715
0.000201701101198
0.000201754959934
0.000201809713718
0.000201865281742
0.000201922034462
0.000201979140524
0.000202036043614
0.00020209242404
0.000202147599573
0.000202200371714
0.00020224824654