/*--------------------------------*- C++ -*----------------------------------*\
| =========                 |                                                 |
| \\      /  F ield         | foam-extend: Open Source CFD                    |
|  \\    /   O peration     | Version:     4.1                                |
|   \\  /    A nd           | Web:         http://www.foam-extend.org         |
|    \\/     M anipulation  |                                                 |
\*---------------------------------------------------------------------------*/
FoamFile
{
    version     2.0;
    format      ascii;
    class       volScalarField;
    location    "0.9";
    object      p;
}
// * * * * * * * * * * * * * * * * * * * * * * * * * * * * * * * * * * * * * //

dimensions      [1 -1 -2 0 0 0 0];

internalField   nonuniform List<scalar> 
96000
(
5231.92365645
5231.81431254
5231.52715598
5231.0959423
5230.51619405
5229.7844588
5228.91726158
5227.91049893
5226.78054744
5225.52947231
5224.17112032
5222.71236815
5221.16570339
5219.54083604
5217.84985124
5216.10389038
5214.31501247
5212.49495665
5210.65568371
5208.80919358
5206.96664743
5205.13998235
5203.34056161
5201.5792527
5199.8667174
5198.21306437
5196.62834146
5195.12147945
5193.70202667
5192.37721303
5191.15651365
5190.04452259
5189.0513489
5188.17773699
5187.43456276
5186.81891867
5186.33800007
5185.99375493
5185.7672815
5185.69439839
5231.80614718
5231.74074909
5231.48087875
5231.07222327
5230.50983387
5229.79277433
5228.93808573
5227.94247935
5226.82268008
5225.58122893
5224.23223359
5222.78295518
5221.2459843
5219.6311898
5217.95068416
5216.21563781
5214.43807642
5212.6297214
5210.80252392
5208.9682883
5207.13858782
5205.32454495
5203.5377778
5201.78906088
5200.08896599
5198.44750101
5196.87455373
5195.3788868
5193.96977323
5192.65417008
5191.44110476
5190.33469877
5189.34441023
5188.47017067
5187.72228343
5187.09638793
5186.60022162
5186.23222098
5185.97717911
5185.86603321
5231.48805624
5231.44914239
5231.2084981
5230.81591685
5230.26683501
5229.56173124
5228.71769037
5227.73247358
5226.62241571
5225.39103784
5224.05208725
5222.61329394
5221.08714994
5219.48377029
5217.81524682
5216.09286008
5214.32862662
5212.53426997
5210.72169082
5208.90260318
5207.08851461
5205.29066304
5203.52036387
5201.78836379
5200.10499525
5198.48002314
5196.92308537
5195.4427546
5194.04795987
5192.74548944
5191.5438469
5190.44706174
5189.46385707
5188.5941011
5187.84734651
5187.21853134
5186.71576155
5186.33453159
5186.06583102
5185.94109851
5231.01223947
5230.99508246
5230.77012606
5230.39476844
5229.86110159
5229.17151037
5228.34239755
5227.37238511
5226.27738059
5225.06152723
5223.73844042
5222.31631841
5220.80762337
5219.22270825
5217.57365851
5215.87183132
5214.12920245
5212.35746479
5210.56843228
5208.7736967
5206.98467146
5205.21245863
5203.46806537
5201.76203354
5200.10453134
5198.50509452
5196.97303373
5195.51661789
5194.14432974
5192.86263367
5191.67945408
5190.59854193
5189.62797116
5188.76746661
5188.02620843
5187.39908457
5186.89504397
5186.509219
5186.23639407
5186.10767824
5230.3698359
5230.36926275
5230.15718937
5229.79712661
5229.2773603
5228.60233256
5227.7876924
5226.83295842
5225.75362925
5224.55446014
5223.2488848
5221.84547903
5220.35665313
5218.79295995
5217.16647077
5215.48860831
5213.77130855
5212.02623324
5210.26509979
5208.49938324
5206.74035912
5204.99899499
5203.28602157
5201.61171145
5199.98595679
5198.41800514
5196.91681606
5195.49033643
5194.14661655
5192.89182593
5191.73337654
5190.67484769
5189.72374114
5188.87983
5188.1517361
5187.5347062
5187.03729206
5186.65614771
5186.3855207
5186.26315907
5229.55997968
5229.5734011
5229.37281392
5229.02804429
5228.52277806
5227.86367823
5227.06543163
5226.12833873
5225.06756545
5223.88833981
5222.60399323
5221.22341225
5219.75900307
5218.22148582
5216.62293168
5214.97480735
5213.28900031
5211.57711171
5209.85073961
5208.12121142
5206.39962266
5204.69672832
5203.02297187
5201.38831835
5199.80232395
5198.27388433
5196.81155365
5195.42289189
5194.11548301
5192.89513615
5191.76876503
5190.73972627
5189.81503443
5188.9945624
5188.28645822
5187.68680063
5187.20326513
5186.83551739
5186.57414755
5186.4652026
5228.60025503
5228.62549166
5228.43543237
5228.10529367
5227.61449829
5226.97180844
5226.19096137
5225.27297364
5224.23275889
5223.07593355
5221.81578169
5220.46143705
5219.02532262
5217.5182884
5215.95240699
5214.33916627
5212.69039488
5211.01761318
5209.33228216
5207.64555723
5205.96831773
5204.31106338
5202.68392059
5201.09650623
5199.55799372
5198.07687912
5196.66127711
5195.31832227
5194.05512286
5192.87710061
5191.79069338
5190.79901709
5189.90862616
5189.11948182
5188.43916418
5187.86464584
5187.40222485
5187.05486009
5186.80814983
5186.71634894
5227.48780316
5227.52354181
5227.34396223
5227.02882593
5226.55346961
5225.928595
5225.16702547
5224.27041933
5223.25352175
5222.12227435
5220.88997744
5219.56597266
5218.16272942
5216.69120433
5215.1634776
5213.59103891
5211.98564838
5210.35872265
5208.72156236
5207.08511802
5205.46001542
5203.85645344
5202.28420271
5200.75248536
5199.27004076
5197.8449084
5196.48471347
5195.19610704
5193.98568498
5192.85842358
5191.8202683
5190.87403604
5190.02581698
5189.27562141
5188.63040466
5188.08810758
5187.65327424
5187.33258943
5187.1052575
5187.03463593
5226.24120256
5226.28655802
5226.11693722
5225.81684247
5225.35753256
5224.75163296
5224.01106033
5223.13805518
5222.14724448
5221.04484128
5219.84419957
5218.55483216
5217.18927034
5215.75855314
5214.27476572
5212.74937848
5211.19406789
5209.62012216
5208.03865582
5206.46038101
5204.89563186
5203.35426316
5201.84564678
5200.37856236
5198.96126542
5197.60128453
5196.30570626
5195.08064293
5193.93213865
5192.86466958
5191.88366226
5190.99157435
5190.19400788
5189.49094806
5188.88866421
5188.38595754
5187.98548009
5187.69730986
5187.4941425
5187.4470831
5224.8640477
5224.91868993
5224.75941401
5224.4751694
5224.03323765
5223.44808259
5222.73076263
5221.88406375
5220.9225534
5219.85268986
5218.68791997
5217.43790897
5216.11526621
5214.73109777
5213.29749177
5211.82588088
5210.32784178
5208.81450894
5207.29678311
5205.78510271
5204.28946958
5202.81934882
5201.38366549
5199.99070387
5198.64818002
5197.36305076
5196.14180497
5194.98994961
5193.91291939
5192.91461754
5191.99989681
5191.17077133
5190.43229506
5189.78432886
5189.23236217
5188.7759595
5188.41568697
5188.16503792
5187.98970296
5187.9688399
5223.37254915
5223.43638344
5223.28754719
5223.01983801
5222.59647648
5222.03381865
5221.34206429
5220.52452213
5219.59572867
5218.56236214
5217.43798271
5216.23238985
5214.95827567
5213.62679673
5212.25003583
5210.83936777
5209.40624969
5207.96163439
5206.51617691
5205.08000444
5203.66274436
5202.27342379
5200.92046983
5199.61161539
5198.35397833
5197.15387971
5196.01714746
5194.94861416
5193.95304011
5193.03367963
5192.19474851
5191.43773108
5190.76706676
5190.18238948
5189.68833009
5189.28507785
5188.97102758
5188.76282834
5188.61913313
5188.6264156
5221.77554479
5221.84881354
5221.71107799
5221.46110573
5221.05798809
5220.52000539
5219.85651104
5219.07133399
5218.17901217
5217.18643593
5216.10729926
5214.95152719
5213.73189917
5212.45960907
5211.14672498
5209.8045441
5208.44438245
5207.07698208
5205.71271824
5204.36136656
5203.032135
5201.73356216
5200.47352213
5199.25913653
5198.09686149
5196.99231332
5195.95058793
5194.97576606
5194.07185807
5193.24138223
5192.4878359
5191.8120731
5191.21782927
5190.70439667
5190.27544016
5189.93167002
5189.66916892
5189.50773418
5189.3987193
5189.43609316
5220.08785135
5220.17090299
5220.0448425
5219.81381233
5219.43261765
5218.92156585
5218.28914678
5217.53971621
5216.68782828
5215.74057753
5214.71180139
5213.61154019
5212.45265849
5211.24637283
5210.00472261
5208.73890519
5207.46006996
5206.17871641
5204.90490336
5203.64801187
5202.41678237
5201.21921161
5200.06256311
5198.95328405
5197.89710245
5196.89885778
5195.96283942
5195.09229505
5194.29040484
5193.55886173
5192.90035873
5192.31502098
5191.80578704
5191.37150307
5191.01477
5190.73672018
5190.53101081
5190.42052641
5190.34917149
5190.41824037
5218.32128904
5218.41462807
5218.30110519
5218.09050696
5217.73318978
5217.25158391
5216.65329658
5215.94322851
5215.13596362
5214.23880095
5213.26572935
5212.22689782
5211.13525191
5210.00201665
5208.83918676
5207.65783625
5206.46891993
5205.2826603
5204.10876038
5202.95616151
5201.83308608
5200.74693292
5199.70429451
5198.71087891
5197.77161597
5196.89049339
5196.070916
5195.31521423
5194.62565171
5194.00300182
5193.44906121
5192.96312271
5192.54722831
5192.1996738
5191.92188958
5191.71535632
5191.57116725
5191.51536207
5191.4841346
5191.5863304
5216.49014836
5216.59430845
5216.4941764
5216.30552648
5215.97407813
5215.52450268
5214.96349289
5214.29651549
5213.53818891
5212.69601607
5211.78413866
5210.81280608
5209.79503593
5208.74204516
5207.66576362
5206.57711572
5205.48683005
5204.40481515
5203.34037578
5202.30196645
5201.29723849
5200.3329348
5199.4149149
5198.54808068
5197.73649313
5196.98321219
5196.2906796
5195.66022439
5195.09310804
5194.58909237
5194.14898426
5193.7711436
5193.45662384
5193.20307204
5193.01064398
5192.88111951
5192.80288596
5192.80522444
5192.81636176
5192.95283582
5214.60759882
5214.72315798
5214.63738887
5214.47231856
5214.16884662
5213.7539962
5213.23351023
5212.6134468
5211.90846055
5211.12625993
5210.28113842
5209.38343721
5208.44623434
5207.48072039
5206.49873751
5205.51103146
5204.52807104
5203.55941162
5202.61391466
5201.69949714
5200.82318448
5199.99100529
5199.20802278
5198.47826505
5197.8048543
5197.18985046
5196.63465337
5196.13950703
5195.70458521
5195.32854797
5195.01111853
5194.74963161
5194.54405421
5194.39129919
5194.29013545
5194.24261677
5194.23426625
5194.29775845
5194.35303285
5194.52464483
5212.68764732
5212.81516279
5212.74472528
5212.60485285
5212.33145845
5211.95402466
5211.47730703
5210.90797886
5210.26072846
5209.54346964
5208.77064222
5207.95266837
5207.10267081
5206.2317927
5205.35176158
5204.47311269
5203.60601784
5202.7596371
5201.94234056
5201.16145644
5200.42332821
5199.73321006
5199.09530785
5198.51271076
5197.98753541
5197.52076796
5197.1126895
5196.76238113
5196.46884751
5196.22956217
5196.04308299
5195.90563421
5195.81599958
5195.77028305
5195.7657487
5195.80470761
5195.86962222
5195.99676528
5196.09731294
5196.30468134
5210.74378987
5210.88378515
5210.82968203
5210.71661441
5210.47538668
5210.13803333
5209.70828615
5209.19345735
5208.60826319
5207.96082163
5207.26571001
5206.53341825
5205.77709459
5205.00781058
5204.23714984
5203.47540266
5202.7324033
5202.01687266
5201.33664
5200.69839145
5200.10773161
5199.56908205
5199.08573217
5198.65976896
5198.29223175
5197.98295878
5197.73104255
5197.5343232
5197.39055197
5197.29592333
5197.24774254
5197.24103618
5197.27331553
5197.33982302
5197.43623683
5197.56516794
5197.70581886
5197.89834135
5198.04487085
5198.28779363
5208.78961244
5208.94253799
5208.90576527
5208.82101413
5208.61395252
5208.31923169
5207.93953175
5207.48282125
5206.96383612
5206.39089404
5205.77869731
5205.13778723
5204.48131538
5203.82025434
5203.16601104
5202.52859343
5201.91745563
5201.34083189
5200.80595933
5200.31882804
5199.8842491
5199.50575556
5199.18565596
5198.92497089
5198.72359889
5198.58016504
5198.49250325
5198.45714495
5198.47052571
5198.52750192
5198.62407148
5198.75400762
5198.91349367
5199.09687076
5199.29814817
5199.52023289
5199.73900488
5199.99845333
5200.19208334
5200.47022425
5206.83842876
5207.00458839
5206.98601709
5206.93096377
5206.75993923
5206.5102438
5206.18348498
5205.78829764
5205.33942723
5204.84538321
5204.32097695
5203.77678193
5203.22592728
5202.67925694
5202.1479645
5201.64173543
5201.16960021
5200.73925632
5200.35729762
5200.02896658
5199.75822699
5199.54766229
5199.39854496
5199.31077519
5199.28305804
5199.31275292
5199.39638109
5199.52911641
5199.70603849
5199.92063193
5200.16754105
5200.43924268
5200.73054295
5201.03482784
5201.34434984
5201.6622593
5201.96106084
5202.28853621
5202.52946636
5202.84261692
5204.90249043
5205.08262098
5205.0830356
5205.05890781
5204.92562416
5204.7231375
5204.45197079
5204.12142425
5203.74624178
5203.33511438
5202.90294462
5202.46031669
5202.020308
5201.5936013
5201.19113858
5200.82224119
5200.49546872
5200.21793432
5199.99554023
5199.83273032
5199.73256298
5199.69662445
5199.72510862
5199.81675172
5199.96902309
5200.17797883
5200.43879181
5200.74524208
5201.09101507
5201.46817264
5201.86993439
5202.28741566
5202.71397002
5203.14197186
5203.56184546
5203.97700393
5204.35647695
5204.75202921
5205.03953327
5205.38670878
5202.99414467
5203.18828678
5203.20853224
5203.21655608
5203.12260159
5202.96928077
5202.75606071
5202.49291129
5202.19457158
5201.86990337
5201.53388152
5201.19707715
5200.87248494
5200.57059132
5200.30204736
5200.07576659
5199.89979118
5199.78060577
5199.72337403
5199.73168468
5199.80764729
5199.95181419
5200.16326626
5200.43954016
5200.77683134
5201.16985183
5201.61239416
5202.09680517
5202.61532207
5203.15853611
5203.71821777
5204.28408616
5204.84800536
5205.40133985
5205.93264925
5206.44562411
5206.90574958
5207.36889633
5207.70204859
5208.08198835
5201.12553932
5201.33372184
5201.37438923
5201.41534501
5201.36198265
5201.25941648
5201.10609879
5200.91264773
5200.69379525
5200.45855752
5200.22196011
5199.994534
5199.78915771
5199.6160848
5199.4856331
5199.4062649
5199.38546265
5199.42904048
5199.54136961
5199.72513903
5199.98147253
5200.30985989
5200.70823914
5201.1729121
5201.69876111
5202.27912505
5202.90639266
5203.57145649
5204.26508186
5204.97637782
5205.69566278
5206.41125053
5207.11349644
5207.79274512
5208.43567015
5209.04624241
5209.58634273
5210.11601808
5210.49349704
5210.90469486
5199.30809987
5199.53040124
5199.5917332
5199.66609179
5199.65418106
5199.60351534
5199.51157547
5199.38958932
5199.25227445
5199.10877783
5198.97415135
5198.85885471
5198.77561489
5198.734414
5198.74519398
5198.81592416
5198.95348983
5199.16298536
5199.44794306
5199.81011418
5200.24960605
5200.76482442
5201.35253895
5202.00778274
5202.72411059
5203.49347624
5204.30685275
5205.1536736
5206.0232432
5206.90319293
5207.78236907
5208.64768642
5209.48801
5210.29262583
5211.04631556
5211.7533424
5212.37197467
5212.96643784
5213.38643792
5213.82704801
5197.55204948
5197.78846995
5197.87072113
5197.97874769
5198.00882634
5198.01076443
5197.9811602
5197.93181149
5197.87742158
5197.82724063
5197.7963206
5197.79501562
5197.83586377
5197.92853507
5198.08255411
5198.30535916
5198.60319653
5198.98039616
5199.43961314
5199.98162423
5200.60550232
5201.30856009
5202.08637532
5202.932698
5203.83974991
5204.79810839
5205.79732889
5206.82538887
5207.87017255
5208.9178344
5209.95577305
5210.9694977
5211.94639955
5212.8747216
5213.73734651
5214.53881471
5215.23383207
5215.89076681
5216.35117878
5216.81908587
5195.86716531
5196.11747673
5196.22068428
5196.36229836
5196.43453693
5196.48931435
5196.52245682
5196.54628639
5196.57549688
5196.61941115
5196.69305496
5196.80664068
5196.97247944
5197.19988776
5197.49793366
5197.87348872
5198.33211789
5198.87735249
5199.51093127
5200.23262958
5201.04048469
5201.93071921
5202.89770135
5203.93389489
5205.03020275
5206.17583025
5207.35893935
5208.56609319
5209.78376533
5210.99667557
5212.19078865
5213.35025231
5214.46097606
5215.51019579
5216.47892175
5217.37190897
5218.14043336
5218.85685895
5219.35511578
5219.84806747
5194.26285112
5194.52662203
5194.65063487
5194.82529521
5194.93939359
5195.04669704
5195.14238291
5195.23924196
5195.35196429
5195.48990746
5195.66804418
5195.89640462
5196.18703425
5196.54885499
5196.9904419
5197.51806196
5198.13656781
5198.84866108
5199.65512544
5200.55472382
5201.54448198
5202.61953623
5203.77303487
5204.99616786
5206.27853247
5207.60798924
5208.97136962
5210.35385102
5211.74053683
5213.11471663
5214.4610259
5215.76225502
5217.00288776
5218.16914645
5219.2402287
5220.22109603
5221.05968098
5221.83214658
5222.36540834
5222.88097404
5192.74708501
5193.02363545
5193.16817113
5193.37494594
5193.53014395
5193.68913048
5193.84654813
5194.01559163
5194.21095776
5194.44199348
5194.72359307
5195.06555995
5195.47963663
5195.97431085
5196.55763207
5197.23522688
5198.0112152
5198.88743934
5199.86369308
5200.93774093
5202.10564602
5203.36145862
5204.69709424
5206.10249066
5207.56597965
5209.07414429
5210.61252258
5212.16496014
5213.71521463
5215.24525064
5216.73836799
5218.17607086
5219.54147613
5220.81979826
5221.98851642
5223.05271261
5223.95719388
5224.78166419
5225.34669088
5225.88223652
5191.32837691
5191.61688119
5191.7809937
5192.01854379
5192.21351124
5192.42270894
5192.64036786
5192.8800032
5193.15633041
5193.47862766
5193.86168329
5194.31502279
5194.85004969
5195.47477768
5196.1966988
5197.0207723
5197.95037344
5198.98645169
5200.12779309
5201.37120274
5202.71185921
5204.14269167
5205.6543778
5207.23566718
5208.87369937
5210.55382708
5212.2603475
5213.97580927
5215.68275075
5217.36183734
5218.99512326
5220.56283412
5222.04685399
5223.43136891
5224.69226088
5225.83463784
5226.80044999
5227.67255546
5228.2660798
5228.81879478
5190.01254909
5190.31195379
5190.49445104
5190.7610668
5190.99407388
5191.25149797
5191.52732734
5191.83528668
5192.19013182
5192.60100222
5193.08255601
5193.64398542
5194.29632325
5195.04707035
5195.90313498
5196.86879198
5197.94667074
5199.13678056
5200.43691857
5201.84301506
5203.34941346
5204.94785045
5206.62784433
5208.37702973
5210.18141549
5212.02517513
5213.8914219
5215.76152093
5217.6168468
5219.43681885
5221.20233929
5222.89241276
5224.48775419
5225.97154121
5227.31820266
5228.53274332
5229.55457346
5230.46932621
5231.08759394
5231.65470641
5188.80774905
5189.11660035
5189.31571005
5189.60902428
5189.87769283
5190.18067926
5190.51190994
5190.88517546
5191.31529053
5191.81116439
5192.38729897
5193.05248801
5193.81736399
5194.68887578
5195.67332977
5196.7743044
5197.99369051
5199.33049765
5200.78161545
5202.34219888
5204.00574123
5205.76276896
5207.60174334
5209.50926844
5211.47027566
5213.46782946
5215.48397584
5217.49895525
5219.4930627
5221.44454334
5223.33327089
5225.13707828
5226.83561822
5228.41105736
5229.83657045
5231.11685622
5232.18926936
5233.14139055
5233.7807628
5234.35925333
5187.71697898
5188.03334359
5188.24723811
5188.56454943
5188.86624808
5189.21177187
5189.59521279
5190.03024811
5190.5317753
5191.10836758
5191.77435093
5192.53804966
5193.40967613
5194.39559127
5195.50149379
5196.73025914
5198.08306164
5199.55785133
5201.15074144
5202.85621548
5204.66684657
5206.57200007
5208.55920302
5210.6140905
5212.72059721
5214.86077358
5217.01568441
5219.16451765
5221.2865846
5223.35904419
5225.36083684
5227.26865957
5229.06125328
5230.71976897
5232.21632203
5233.55514649
5234.67198273
5235.65576753
5236.31210726
5236.89908551
5186.74878152
5187.07019589
5187.2962976
5187.63420311
5187.96559133
5188.34994865
5188.78170421
5189.2742278
5189.84250825
5190.49465426
5191.24479837
5192.100711
5193.07217278
5194.16491863
5195.38404205
5196.73171498
5198.20842745
5199.81102614
5201.53500338
5203.37427177
5205.32037802
5207.36166763
5209.48482827
5211.67459857
5213.91402663
5216.18423981
5218.46541905
5220.7357843
5222.97380738
5225.1556267
5227.25937972
5229.26066981
5231.1375297
5232.87004926
5234.42957582
5235.81953154
5236.97473238
5237.98396183
5238.65339733
5239.24444259
5185.90263407
5186.22584153
5186.46159025
5186.81651603
5187.17425908
5187.59374813
5188.0698764
5188.61549072
5189.24565082
5189.96785692
5190.7960353
5191.73731882
5192.80106048
5193.99233923
5195.31566519
5196.77251957
5198.36273999
5200.08208449
5201.92556542
5203.88659532
5205.9556219
5208.12011649
5210.36605155
5212.67734844
5215.03625014
5217.42305529
5219.81718188
5222.1959642
5224.53714195
5226.81589829
5229.00970824
5231.09312687
5233.04364072
5234.84029124
5236.45392182
5237.88701935
5239.07394618
5240.10251404
5240.78105924
5241.37259609
5185.18710108
5185.50852702
5185.7506575
5186.11864982
5186.49870052
5186.94892027
5187.46460756
5188.05794255
5188.74404204
5189.52963926
5190.42846742
5191.44692281
5192.59394936
5193.87393816
5195.29084958
5196.84548744
5198.53705973
5200.3603168
5202.30990758
5204.37877638
5206.55629373
5208.82921733
5211.1828849
5213.60050195
5216.06364056
5218.55186384
5221.04395664
5223.51647103
5225.94656961
5228.30854933
5230.57943758
5232.73278964
5234.74577075
5236.59631514
5238.255131
5239.72324878
5240.93544315
5241.97659406
5242.65992676
5243.24539885
5184.59981989
5184.91453556
5185.15920063
5185.53627007
5185.93497479
5186.41236025
5186.96367741
5187.60031445
5188.33724187
5189.18029888
5190.14299625
5191.23093382
5192.45268174
5193.81194577
5195.31219209
5196.95358537
5198.73473918
5200.64954654
5202.69232808
5204.85552948
5207.12756933
5209.4946476
5211.94153001
5214.45077987
5217.00342686
5219.57840242
5222.15395432
5224.70594383
5227.21107127
5229.64280611
5231.97781639
5234.1887417
5236.25248966
5238.14606888
5239.84009609
5241.3344407
5242.56480387
5243.61239283
5244.29710092
5244.87110609
5184.14280258
5184.44674678
5184.69058999
5185.0735304
5185.48656406
5185.98627744
5186.56742608
5187.24065581
5188.02085106
5188.91278913
5189.92985427
5191.07674678
5192.36173077
5193.78780891
5195.35801569
5197.07190308
5198.92752287
5200.91801099
5203.0375722
5205.27815462
5207.6272841
5210.07074179
5212.59285393
5215.17565429
5217.79976896
5220.44361083
5223.08506789
5225.69940591
5228.26307031
5230.74880255
5233.13316764
5235.38791864
5237.49006904
5239.41564742
5241.13551581
5242.64819359
5243.89024518
5244.93804934
5245.61987891
5246.17434015
5183.82386902
5184.1103185
5184.34741612
5184.73291486
5185.15771862
5185.6781852
5186.28691033
5186.9940081
5187.81355393
5188.74946698
5189.81481391
5191.01355863
5192.35366938
5193.83756022
5195.4679018
5197.24372108
5199.16266025
5201.21717311
5203.40115711
5205.70620964
5208.11921442
5210.62556606
5213.20922372
5215.85177403
5218.53347109
5221.23237074
5223.92607254
5226.5893634
5229.19843381
5231.72539406
5234.14655928
5236.43299047
5238.56123797
5240.50691308
5242.2404374
5243.7600941
5245.00300561
5246.04086051
5246.71299153
5247.23596452
5183.61081888
5183.87601155
5184.10602939
5184.49364869
5184.92614922
5185.46113831
5186.08925416
5186.82021902
5187.66791816
5188.63521253
5189.73515756
5190.97088052
5192.35018111
5193.87489854
5195.54743358
5197.36630088
5199.32887201
5201.42694285
5203.65470373
5206.0031843
5208.45863764
5211.00631859
5213.62998108
5216.31098934
5219.02932848
5221.76276656
5224.48886611
5227.18205641
5229.81852096
5232.36984333
5234.8124559
5237.11670842
5239.25943312
5241.21556835
5242.95559708
5244.47778823
5245.71893366
5246.74708954
5247.40546175
5247.89168486
5183.5561818
5183.79439822
5184.01865086
5184.40807997
5184.85109231
5185.40270266
5186.05027233
5186.80415244
5187.67649634
5188.67052079
5189.79854901
5191.06372963
5192.47348207
5194.02948007
5195.73383877
5197.58477034
5199.57974527
5201.70975004
5203.96867978
5206.34786428
5208.83313342
5211.40947612
5214.06049677
5216.76736369
5219.51007047
5222.26619427
5225.01316754
5227.72537661
5230.37882092
5232.94497363
5235.3999173
5237.71403439
5239.86253998
5241.82080034
5243.55640863
5245.06855829
5246.29152765
5247.28955613
5247.91188815
5248.33646345
5068.79227572
5068.66786491
5068.36847859
5067.92506358
5067.33502887
5066.59376661
5065.71809462
5064.70327865
5063.56559463
5062.30676965
5060.94055755
5059.47373526
5057.91874044
5056.28526376
5054.58540155
5052.83031703
5051.03209867
5049.20253358
5047.35364667
5045.49744696
5043.64527882
5041.80887897
5039.99987411
5038.2291356
5036.50735532
5034.84471707
5033.25133492
5031.73622455
5030.30902662
5028.97709673
5027.75007797
5026.63277751
5025.63565557
5024.75979423
5024.01678773
5023.40430498
5022.93089384
5022.59986341
5022.39394574
5022.35141682
5068.66123106
5068.5781223
5068.30761566
5067.8824147
5067.30696063
5066.57767487
5065.71261295
5064.70763068
5063.57931942
5062.32988051
5060.97312407
5059.51611935
5057.97131425
5056.3485334
5054.65985043
5052.9164466
5051.13034838
5049.31331389
5047.47732086
5045.63422169
5043.79563909
5041.97274376
5040.17724392
5038.42000377
5036.71158478
5035.06203213
5033.48128255
5031.97819141
5030.56211971
5029.24018459
5028.02159237
5026.91074372
5025.91750653
5025.04219484
5024.29596389
5023.6745671
5023.18742166
5022.83178387
5022.60099355
5022.52939743
5068.33169555
5068.27644455
5068.031775
5067.62427307
5067.06248386
5066.34431939
5065.48882165
5064.49321253
5063.37381616
5062.13375919
5060.78652837
5059.33966116
5057.8054523
5056.19394521
5054.51715985
5052.78638568
5051.01364646
5049.21068847
5047.38943429
5045.56164212
5043.73884208
5041.93230075
5040.15335707
5038.41279999
5036.72104039
5035.08792552
5033.5231505
5032.03539054
5030.63366752
5029.32495659
5028.11796144
5027.01703898
5026.03135376
5025.16116157
5024.41686426
5023.79322437
5023.3001973
5022.93087162
5022.68817839
5022.60653619
5067.84400898
5067.80535854
5067.57782052
5067.18740934
5066.64098596
5065.93759661
5065.09615249
5064.1147629
5063.00955169
5061.78432755
5060.45244492
5059.02187221
5057.50484658
5055.91161974
5054.25418136
5052.54387434
5050.79266123
5049.01225822
5047.21450059
5045.4110283
5043.61327194
5041.83237854
5040.07940411
5038.36493244
5036.69917556
5035.0917339
5033.55197308
5032.08826357
5030.70918291
5029.42138268
5028.23299415
5027.14808299
5026.17517538
5025.31431632
5024.57560855
5023.95367892
5023.45992651
5023.08759667
5022.8461576
5022.77362132
5067.19135432
5067.16608688
5066.9517542
5066.57649373
5066.04399811
5065.35481832
5064.52740712
5063.56078132
5062.47081576
5061.26194587
5059.94738308
5058.53545679
5057.03834207
5055.46646423
5053.83178277
5052.14568863
5050.4200944
5048.66667715
5046.89717217
5045.12309473
5043.35573361
5041.60609556
5039.88495998
5038.20263888
5036.56906532
5034.99354218
5033.48507853
5032.05171309
5030.70158739
5029.44104525
5028.27770764
5027.21544551
5026.26223201
5025.41812148
5024.69277119
5024.0811618
5023.59476397
5023.2283808
5022.99225803
5022.92984598
5066.37177001
5066.35743796
5066.15375016
5065.79292862
5065.27455821
5064.60082425
5063.78938142
5062.83997001
5061.76823787
5060.57909464
5059.28568075
5057.89661775
5056.42406768
5054.87860028
5053.2721606
5051.61616835
5049.92247888
5048.20270023
5046.46844431
5044.73107141
5043.0016884
5041.29108607
5039.60975127
5037.96768157
5036.374467
5034.83904959
5033.37002611
5031.97503848
5030.66175717
5029.43615386
5028.30535352
5027.27298944
5026.3465756
5025.52625328
5024.82133009
5024.22761878
5023.75609697
5023.40442914
5023.17995457
5023.13274423
5065.40315475
5065.3987654
5065.20434716
5064.85727739
5064.35290762
5063.6951527
5062.90081408
5061.97027295
5060.91899809
5059.75227289
5058.48321116
5057.12066261
5055.67679795
5054.16229659
5052.58909253
5050.96861188
5049.31264275
5047.63270365
5045.94026373
5044.24650176
5042.56230588
5040.89820695
5039.26436696
5037.6704279
5036.12558899
5034.63838213
5033.21695541
5031.86851207
5030.60024008
5029.41770967
5028.32757081
5027.3331991
5026.44167493
5025.65319992
5024.97661411
5024.40854297
5023.95878752
5023.62779945
5023.41841296
5023.38648405
5064.28207222
5064.2870265
5064.10186926
5063.76886181
5063.27939213
5062.63902694
5061.86373257
5060.95444548
5059.92651755
5058.78553045
5057.54462624
5056.21284031
5054.80238278
5053.32402119
5051.78968549
5050.21079046
5048.59904682
5046.96586104
5045.32253661
5043.6800395
5042.04899979
5040.43964154
5038.86176192
5037.32460031
5035.83691258
5034.40676359
5033.04180167
5031.7487329
5030.53422255
5029.40337855
5028.3623549
5027.41420404
5026.5655619
5025.81663314
5025.17569874
5024.64019659
5024.21829784
5023.91351779
5023.7226308
5023.70839384
5063.02708309
5063.04112454
5062.86493794
5062.54618491
5062.07232998
5061.45063419
5060.69624815
5059.81060133
5058.80897238
5057.69717918
5056.48842544
5055.19189485
5053.81985076
5052.38312614
5050.8936458
5049.36279399
5047.80218961
5046.22310239
5044.63664343
5043.05353208
5041.48410158
5039.93822435
5038.42528864
5036.95408241
5035.53286706
5034.16918434
5032.87013183
5031.64186145
5030.49047239
5029.42054982
5028.43771773
5027.54463313
5026.74744548
5026.04626166
5025.44870554
5024.95285949
5024.56503054
5024.29137731
5024.12245253
5024.12645767
5061.64148259
5061.66477811
5061.49822809
5061.19470502
5060.7379212
5060.13678905
5059.4057025
5058.54654618
5057.57458211
5056.49583313
5055.32360086
5054.06719928
5052.73896062
5051.34976917
5049.91154366
5048.43562092
5046.93351334
5045.41632939
5043.89495795
5042.37983647
5040.88096093
5039.40780555
5037.96930098
5036.57373017
5035.22880343
5033.94147704
5032.71823623
5031.56460989
5030.48606943
5029.48659818
5028.57122609
5027.74211602
5027.00485297
5026.35931834
5025.8123597
5025.36256934
5025.01416917
5024.77593954
5024.63167901
5024.655471
5060.14141505
5060.17421092
5060.01763706
5059.73022062
5059.29187111
5058.71321341
5058.00790036
5057.17824651
5056.23952748
5055.19794313
5054.0669131
5052.85586294
5051.57720089
5050.24184698
5048.86170682
5047.44805051
5046.01226392
5044.56526654
5043.11769473
5041.67966484
5040.2607918
5038.87010311
5037.51602031
5036.20626389
5034.94793336
5033.74733456
5032.61027468
5031.54158545
5030.54604264
5029.62694523
5028.78865559
5028.03274331
5027.36414758
5026.78239949
5026.29347061
5025.89630739
5025.59292984
5025.39448507
5025.27795883
5025.32249709
5058.53561247
5058.57843236
5058.43270536
5058.16276156
5057.74466943
5057.19080569
5056.51410438
5055.71730423
5054.81572872
5053.81574485
5052.73091171
5051.5707569
5050.34777022
5049.07289637
5047.75801942
5046.41432345
5045.05304599
5043.68488821
5042.32019999
5040.96873679
5039.63968586
5038.3415766
5037.08226583
5035.86885103
5034.70775597
5033.60456581
5032.56433732
5031.5911247
5030.68892713
5029.86026515
5029.10874499
5028.4352307
5027.84391355
5027.33384467
5026.91000668
5026.57156972
5026.31821826
5026.16346074
5026.07714781
5026.14371596
5056.8388698
5056.89224722
5056.75809209
5056.50696381
5056.11094769
5055.5842678
5054.93913103
5054.17870196
5053.31836958
5052.36465814
5051.33127642
5050.22784434
5049.06693178
5047.85949428
5046.61738088
5045.35166794