/*--------------------------------*- C++ -*----------------------------------*\
| =========                 |                                                 |
| \\      /  F ield         | foam-extend: Open Source CFD                    |
|  \\    /   O peration     | Version:     4.1                                |
|   \\  /    A nd           | Web:         http://www.foam-extend.org         |
|    \\/     M anipulation  |                                                 |
\*---------------------------------------------------------------------------*/
FoamFile
{
    version     2.0;
    format      ascii;
    class       volScalarField;
    location    "0.9";
    object      pd;
}
// * * * * * * * * * * * * * * * * * * * * * * * * * * * * * * * * * * * * * //

dimensions      [1 -1 -2 0 0 0 0];

internalField   nonuniform List<scalar> 
96000
(
5313.52648751
5313.41714478
5313.12998816
5312.6987744
5312.11901931
5311.38726802
5310.520055
5309.51327869
5308.38331638
5307.13223393
5305.77387555
5304.3151141
5302.76844605
5301.14358178
5299.45259985
5297.70663896
5295.91776142
5294.09770707
5292.25843337
5290.41194018
5288.5693941
5286.74273103
5284.94330999
5283.1820012
5281.46946721
5279.81581541
5278.23109356
5276.72423163
5275.30477759
5273.9799625
5272.75926292
5271.64727106
5270.65409336
5269.78048054
5269.03731356
5268.42167167
5267.94075032
5267.59650035
5267.37003298
5267.29717164
5313.40898094
5313.343584
5313.08371708
5312.67506052
5312.11266158
5311.39558603
5310.54088072
5309.5452604
5308.42545103
5307.18399263
5305.83499162
5304.3857095
5302.84873682
5301.23394224
5299.55343743
5297.81839211
5296.04083137
5294.23247651
5292.40527896
5290.57104333
5288.74134293
5286.92730042
5285.14053407
5283.39181822
5281.69172453
5280.05026058
5278.4773138
5276.98164691
5275.57253264
5274.25692806
5273.04386117
5271.93745463
5270.94716732
5270.07293002
5269.32504474
5268.69914922
5268.20297982
5267.83497278
5267.57993192
5267.46881028
5313.09089371
5313.05198547
5312.81134791
5312.41876716
5311.86967749
5311.1645596
5310.32050349
5309.33527414
5308.22520736
5306.99382332
5305.65486842
5304.2160726
5302.68992776
5301.08654855
5299.41802613
5297.69564039
5295.93140753
5294.13705113
5292.32447212
5290.50538472
5288.69129652
5286.89344558
5285.12314741
5283.39114848
5281.70778108
5280.08280994
5278.52587275
5277.04554191
5275.65074636
5274.34827453
5273.14663053
5272.04984463
5271.06664095
5270.19688703
5269.45013355
5268.82131734
5268.3185434
5267.93730481
5267.66859615
5267.54388626
5312.61508221
5312.5979313
5312.37298364
5311.99762913
5311.46395626
5310.77435304
5309.94522618
5308.97520201
5307.8801894
5306.6643309
5305.34124086
5303.91911719
5302.41042204
5300.82550795
5299.17645964
5297.47463365
5295.73200551
5293.96026818
5292.17123586
5290.37650057
5288.58747583
5286.81526378
5285.07087154
5283.36484084
5281.70733977
5280.10790383
5278.57584347
5277.1194274
5275.74713824
5274.46544051
5273.28225921
5272.20134612
5271.2307762
5270.37027366
5269.62901654
5269.00189131
5268.49784579
5268.11201068
5267.83917578
5267.71047698
5311.97268074
5311.97211111
5311.76004777
5311.39999015
5310.88021973
5310.20518001
5309.39052703
5308.43578201
5307.35644565
5306.1572724
5304.85169466
5303.44828779
5301.95946219
5300.39577048
5298.76928321
5297.09142223
5295.37412332
5293.62904846
5291.8679153
5290.10219909
5288.34317554
5286.60181234
5284.88884009
5283.21453129
5281.58877797
5280.02082749
5278.51963914
5277.09315944
5275.74943875
5274.49464667
5273.33619563
5272.27766609
5271.32656073
5270.48265206
5269.75455991
5269.13752579
5268.64010164
5268.25894462
5267.98831372
5267.86595858
5311.16281673
5311.17624352
5310.97566776
5310.63090431
5310.12563443
5309.46652305
5308.66826277
5307.73115866
5306.67037808
5305.49114858
5304.20679999
5302.82621791
5301.36180886
5299.82429319
5298.22574133
5296.5776187
5294.89181248
5293.17992408
5291.45355187
5289.72402344
5288.00243459
5286.29954079
5284.62578528
5282.99113285
5281.40513965
5279.87670113
5278.41437128
5277.02570937
5275.71829886
5274.4979491
5273.37157465
5272.34253365
5271.41784242
5270.59737339
5269.8892716
5269.28961114
5268.80606562
5268.43830309
5268.17692308
5268.06799172
5310.20308202
5310.22832669
5310.03828019
5309.70814801
5309.21734907
5308.57464753
5307.79378626
5306.87578688
5305.83556462
5304.67873538
5303.4185814
5302.06423516
5300.62812118
5299.12108851
5297.55520876
5295.94196968
5294.29319891
5292.62041672
5290.93508498
5289.24836031
5287.57112154
5285.91386786
5284.28672554
5282.69931157
5281.16079913
5279.67968437
5278.26408194
5276.92112681
5275.65792565
5274.47989982
5273.39348807
5272.40180749
5271.51141583
5270.7222761
5270.04196289
5269.46744225
5269.00501194
5268.65763162
5268.41090391
5268.31912719
5309.09062579
5309.12637053
5308.94680469
5308.63167507
5308.15631541
5307.53142913
5306.76984531
5305.8732274
5304.85632284
5303.72507157
5302.49277237
5301.16876805
5299.76552643
5298.29400265
5296.76627672
5295.19383865
5293.58844864
5291.96152331
5290.32436309
5288.68791898
5287.06281731
5285.45925597
5283.88700553
5282.35528839
5280.87284364
5279.44771035
5278.08751355
5276.79890499
5275.58847988
5274.46121419
5273.42305464
5272.47681987
5271.62859986
5270.87840557
5270.23319128
5269.69089248
5269.25605114
5268.93535122
5268.70800085
5268.63740779
5307.84401997
5307.88938123
5307.71977451
5307.41968713
5306.96037436
5306.3544632
5305.61387667
5304.74086017
5303.75004297
5302.64763649
5301.4469928
5300.15762624
5298.79206667
5297.36135133
5295.87756491
5294.3521782
5292.79686819
5291.22292336
5289.64145768
5288.06318303
5286.49843438
5284.95706602
5283.44845003
5281.98136604
5280.56406956
5279.20408857
5277.90850877
5276.68344252
5275.53493451
5274.46746102
5273.48644936
5272.59435972
5271.79679342
5271.09373319
5270.49144773
5269.98873963
5269.58825447
5269.3000692
5269.09689327
5269.04985395
5306.46685856
5306.52150702
5306.36224557
5306.07800939
5305.63607537
5305.05090902
5304.33357568
5303.48686602
5302.52534944
5301.45548341
5300.29071254
5299.04070154
5297.71806052
5296.33389446
5294.90029066
5293.42868148
5291.93064303
5290.41730993
5288.89958487
5287.38790556
5285.89227276
5284.4221522
5282.98646938
5281.59350828
5280.25098476
5278.96585598
5277.74461011
5276.59275213
5275.51571836
5274.5174121
5273.60268598
5272.77355724
5272.03508089
5271.38711522
5270.83514872
5270.37874418
5270.01846235
5269.76779844
5269.59246223
5269.57161257
5304.97535476
5305.03919329
5304.89037213
5304.62267262
5304.19930952
5303.63664078
5302.94487341
5302.12732079
5301.19852141
5300.16515297
5299.04077352
5297.835181
5296.56106805
5295.22959172
5293.85283392
5292.44216834
5291.00905141
5289.56443585
5288.11897825
5286.68280644
5285.26554687
5283.87622675
5282.52327337
5281.21441964
5279.95678286
5278.75668422
5277.61995188
5276.55141768
5275.55584099
5274.63647567
5273.79753842
5273.04051605
5272.36985054
5271.78517513
5271.2911202
5270.88786343
5270.57380237
5270.365588
5270.2218797
5270.22918764
5303.37834332
5303.45161528
5303.31389599
5303.06393461
5302.66081622
5302.12282302
5301.45931585
5300.67412842
5299.78180096
5298.78922342
5297.71008692
5296.55431565
5295.3346895
5294.06240244
5292.7495215
5291.40734298
5290.04718264
5288.67978276
5287.3155186
5285.96416667
5284.63493543
5283.33636336
5282.07632423
5280.86193939
5279.69966471
5278.59511624
5277.55338985
5276.57856729
5275.6746569
5274.84417658
5274.09062416
5273.41485528
5272.82061141
5272.30718241
5271.87822687
5271.53445182
5271.27194017
5271.11048978
5271.00145392
5271.03886193
5301.69064116
5301.77369683
5301.64765396
5301.4166358
5301.03544127
5300.52437935
5299.89194764
5299.14250677
5298.29061343
5297.34336174
5296.31458611
5295.21432615
5294.05544681
5292.84916436
5291.60751727
5290.34170186
5289.06286755
5287.7815147
5286.50770198
5285.25081027
5284.01958073
5282.82201086
5281.66536348
5280.5560847
5279.49990318
5278.5016582
5277.56563845
5276.69509233
5275.89319903
5275.16165071
5274.5031418
5273.91780036
5273.40856435
5272.97428382
5272.6175493
5272.33949527
5272.13377626
5272.02327586
5271.95190569
5272.02100463
5299.92407104
5300.01741496
5299.90391085
5299.69332565
5299.33600961
5298.85439394
5298.25609419
5297.54601595
5296.73874591
5295.84158281
5294.86851229
5293.82968239
5292.73803899
5291.60480686
5290.44197998
5289.26063166
5288.07171648
5286.88545738
5285.71155762
5284.55895873
5283.43588367
5282.34973112
5281.30709296
5280.3136775
5279.37441462
5278.49329095
5277.67371231
5276.91800902
5276.22844228
5275.60578527
5275.05183983
5274.5658992
5274.14999731
5273.80244412
5273.52466274
5273.31812643
5273.17392725
5273.11810525
5273.08687198
5273.1890895
5298.09292415
5298.19708925
5298.09697684
5297.90834091
5297.57689481
5297.1273097
5296.56628773
5295.8993003
5295.14096894
5294.29879641
5293.38692051
5292.41558974
5291.39782221
5290.34483444
5289.26855585
5288.17991089
5287.089627
5286.00761198
5284.94317196
5283.90476261
5282.90003577
5281.93573246
5281.01771194
5280.15087847
5279.33929144
5278.58600904
5277.89347531
5277.26301793
5276.69589683
5276.19187548
5275.75176267
5275.37391336
5275.0593899
5274.80583743
5274.61341492
5274.48388751
5274.40564243
5274.40796295
5274.41909786
5274.55559082
5296.21036923
5296.32593313
5296.24018437
5296.07512893
5295.77166039
5295.35680033
5294.83630238
5294.21622904
5293.51123841
5292.72903863
5291.88391896
5290.98621965
5290.04901938
5289.08350873
5288.10152908
5287.11382583
5286.13086705
5285.16220745
5284.21671007
5283.30229266
5282.42598062
5281.59380216
5280.81082034
5280.08106259
5279.40765138
5278.79264905
5278.23745169
5277.74230028
5277.30737308
5276.9313333
5276.61389665
5276.35239663
5276.1468207
5275.99406689
5275.89290798
5275.84538323
5275.83702072
5275.90049457
5275.95575975
5276.12739948
5294.29041236
5294.41793242
5294.34751592
5294.20765916
5293.93426928
5293.55682581
5293.0800963
5292.51075832
5291.86350379
5291.14624619
5290.37342091
5289.55544902
5288.70545409
5287.83457965
5286.95455201
5286.0759051
5285.20881146
5284.36243122
5283.54513496
5282.76425113
5282.02612272
5281.33600572
5280.69810561
5280.11550704
5279.59032985
5279.12356471
5278.7154864
5278.36517467
5278.07163542
5277.83234652
5277.64585679
5277.50839891
5277.41876637
5277.3730537
5277.36851956
5277.40747124
5277.47237594
5277.59950085
5277.70003151
5277.90743647
5292.34654946
5292.4865494
5292.43246789
5292.31941666
5292.07819454
5291.74083144
5291.31107242
5290.7962338
5290.2110357
5289.56359575
5288.86848649
5288.13619692
5287.37987593
5286.61059526
5285.83993822
5285.07819355
5284.33519489
5283.61966465
5282.93943262
5282.30118464
5281.7105249
5281.17187592
5280.68852701
5280.26256407
5279.89502638
5279.58575
5279.33383101
5279.13711277
5278.99334214
5278.89870394
5278.85050694
5278.84380207
5278.87608443
5278.94259221
5279.03900133
5279.16792989
5279.30857225
5279.50107688
5279.64759285
5279.89054852
5290.39236705
5290.54529715
5290.50854655
5290.42381244
5290.21675759
5289.92202689
5289.54231511
5289.08559463
5288.56660582
5287.99366586
5287.38147163
5286.74056384
5286.08409476
5285.42303689
5284.76879729
5284.13138289
5283.52024585
5282.9436224
5282.40875061
5281.92161947
5281.4870408
5281.1085476
5280.78844815
5280.52776595
5280.3263947
5280.18295384
5280.09528507
5280.05992872
5280.07331419
5280.13027638
5280.22683395
5280.35677715
5280.51626254
5280.69963503
5280.90091181
5281.12299938
5281.34175698
5281.60118647
5281.79482326
5282.07297659
5288.44117905
5288.60734272
5288.58879403
5288.53375838
5288.3627418
5288.11303638
5287.78626577
5287.39106812
5286.94219427
5286.44815314
5285.9237498
5285.37955665
5284.82870481
5284.28203846
5283.7507493
5283.24452259
5282.77238955
5282.34204685
5281.96008824
5281.63175681
5281.36101779
5281.15045486
5281.00133842
5280.91356824
5280.88585039
5280.91554481
5280.99916945
5281.13190165
5281.30882134
5281.52340522
5281.77030887
5282.04201101
5282.33330935
5282.63759009
5282.94711644
5283.26502519
5283.56381069
5283.89126524
5284.13218867
5284.4453656
5286.50523626
5286.68537064
5286.6858085
5286.66169903
5286.52842463
5286.32592783
5286.05474936
5285.72419234
5285.34900664
5284.93788255
5284.5057163
5284.06309028
5283.62308445
5283.19638178
5282.79392213
5282.42502736
5282.09825822
5281.82072469
5281.59832951
5281.43552013
5281.33535593
5281.29942024
5281.32790297
5281.4195411
5281.57181132
5281.78077578
5282.04159095
5282.34802932
5282.69379471
5283.07095524
5283.47270555
5283.89017468
5284.31673425
5284.74473839
5285.16460638
5285.57975755
5285.95922201
5286.35475577
5286.64224696
5286.98945986
5284.59688542
5284.79103219
5284.81130152
5284.81934429
5284.72540035
5284.57206918
5284.35883734
5284.09567742
5283.79733476
5283.47267023
5283.13665191
5282.79984998
5282.47526078
5282.17337029
5281.90483022
5281.67855398
5281.50258073
5281.38339468
5281.32616283
5281.33447629
5281.41044363
5281.55461038
5281.76605866
5282.04233053
5282.37962464
5282.77264894
5283.21519064
5283.6995958
5284.21810477
5284.76131067
5285.32098519
5285.88684889
5286.45076421
5287.00410737
5287.53541182
5288.04836762
5288.50849157
5288.97162516
5289.30476183
5289.68474735
5282.72827532
5282.93646361
5282.97715528
5283.01813051
5282.96477996
5282.86220327
5282.7088737
5282.51541202
5282.29655691
5282.06132342
5281.8247295
5281.59730582
5281.39193239
5281.21886287
5281.08841617
5281.00905246
5280.98825086
5281.03182868
5281.14416062
5281.32793452
5281.58426759
5281.91265143
5282.31103141
5282.77571433
5283.30156542
5283.88191633
5284.50917802
5285.17425616
5285.86787425
5286.57914014
5287.2984244
5288.01402653
5288.71625536
5289.39550641
5290.03844416
5290.64900669
5291.18909179
5291.71874696
5292.0962099
5292.50744954
5280.91083313
5281.13313984
5281.19449623
5281.26887483
5281.25697708
5281.20630069
5281.11434883
5280.99235191
5280.85503453
5280.71154238
5280.57691999
5280.46162549
5280.37838811
5280.33719174
5280.34797693
5280.4187098
5280.55627658
5280.76577509
5281.05073726
5281.41290918
5281.85239678
5282.36761338
5282.95533904
5283.61058922
5284.32691309
5285.09625956
5285.90963343
5286.7564738
5287.62604286
5288.50597814
5289.38513822
5290.25045191
5291.09078206
5291.89538255
5292.64907177
5293.35611407
5293.97473503
5294.56916251
5294.98915506
5295.42977805
5279.15478094
5279.39120548
5279.47348133
5279.58152845
5279.61162122
5279.61354849
5279.58393215
5279.53457253
5279.48017982
5279.43000364
5279.39908873
5279.39778553
5279.43863571
5279.53131196
5279.68533574
5279.90814331
5280.20598353
5280.58318758
5281.04240639
5281.58441483
5282.20829082
5282.91135762
5283.68918275
5284.53550131
5285.44253882
5286.40090003
5287.4001261
5288.42817489
5289.47295676
5290.52062407
5291.55855885
5292.57224516
5293.54916008
5294.47747136
5295.34008704
5296.1415777
5296.83658529
5297.49349445
5297.95393696
5298.42184376
5277.46989395
5277.72020925
5277.82344187
5277.96507699
5278.03733091
5278.09209725
5278.1252275
5278.14904599
5278.17825345
5278.22217302
5278.29582203
5278.40940951
5278.57525097
5278.80266361
5279.1007133
5279.4762727
5279.93490627
5280.48014288
5281.11372114
5281.83541787
5282.64327947
5283.53352681
5284.50050662
5285.53668091
5286.63299073
5287.77863667
5288.96174317
5290.16886323
5291.38652549
5292.59946447
5293.79357172
5294.95300929
5296.06371836
5297.11294157
5298.0816755
5298.97464098
5299.7431621
5300.45960934
5300.9578659
5301.45083585
5275.86557621
5276.12935183
5276.25338996
5276.42807179
5276.54218694
5276.64947886
5276.74515229
5276.84200019
5276.95471993
5277.09266862
5277.27080993
5277.49917238
5277.78980538
5278.15162974
5278.59322032
5279.12084618
5279.73935736
5280.45144957
5281.25791318
5282.15751787
5283.1472904
5284.22234158
5285.37582485
5286.59895911
5287.88134002
5289.21079375
5290.5741602
5291.95662427
5293.34332112
5294.71747539
5296.06378178
5297.36502038
5298.60564467
5299.77191101
5300.84299334
5301.82385039
5302.66241051
5303.43486749
5303.96812079
5304.48373641
5274.3498084
5274.62636269
5274.77092364
5274.97772045
5275.13293647
5275.29191116
5275.44931601
5275.61834825
5275.81371278
5276.04475379
5276.3263578
5276.66832707
5277.08240636
5277.57708391
5278.16041048
5278.83801183
5279.61400417
5280.49022775
5281.46648337
5282.54054551
5283.70845488
5284.96425397
5286.29988936
5287.7053017
5289.16878864
5290.67692159
5292.21529563
5293.76776026
5295.31801495
5296.84803585
5298.34111346
5299.77883596
5301.14423084
5302.42255139
5303.59127587
5304.65547174
5305.55994835
5306.38437677
5306.94940306
5307.48498122
5272.93109901
5273.21960547
5273.38374342
5273.62131612
5273.81630213
5274.02548803
5274.2431338
5274.48275787
5274.75908357
5275.08138589
5275.4644465
5275.91778846
5276.45281704
5277.07754924
5277.79947737
5278.62355567
5279.55315835
5280.58924243
5281.73059226
5282.97400099
5284.31465463
5285.74549977
5287.25719054
5288.83847892
5290.4764895
5292.15660327
5293.86314609
5295.57860976
5297.28555092
5298.96463213
5300.59788782
5302.16557125
5303.64958477
5305.03409564
5306.29498585
5307.43737974
5308.40319868
5309.27527437
5309.8687959
5310.42153505
5271.61526624
5271.91467475
5272.09719794
5272.36383674
5272.59686239
5272.85427473
5273.13009058
5273.43803873
5273.79288167
5274.20375673
5274.68531569
5275.24674773
5275.89908797
5276.64984016
5277.50590979
5278.4715695
5279.54945379
5280.73957302
5282.03971129
5283.44580067
5284.95221032
5286.55066188
5288.23065626
5289.97982282
5291.78420111
5293.62797809
5295.4942199
5297.36429135
5299.21960845
5301.03960024
5302.80510154
5304.49512461
5306.09044804
5307.5742275
5308.92090331
5310.1354669
5311.15729322
5312.07204341
5312.69032231
5313.25745294
5270.41045753
5270.71931822
5270.91845426
5271.21179174
5271.48047885
5271.78345336
5272.11466982
5272.48792343
5272.91803662
5273.41391493
5273.99005421
5274.65524623
5275.42012501
5276.29164037
5277.27609742
5278.37707777
5279.5964733
5280.93328192
5282.3843948
5283.94498773
5285.60854734
5287.36557521
5289.20453316
5291.11205801
5293.07308021
5295.07063315
5297.08675336
5299.10170568
5301.09581817
5303.04729337
5304.93600167
5306.73978453
5308.43830738
5310.01372298
5311.43925377
5312.71956412
5313.79197452
5314.74409509
5315.38348202
5315.96200018
5269.31968621
5269.63605882
5269.84997974
5270.16731477
5270.46903252
5270.81454398
5271.19797018
5271.6329922
5272.13451738
5272.71111471
5273.37710301
5274.14080437
5275.01243226
5275.99834999
5277.1042585
5278.33303165
5279.68583801
5281.16062884
5282.75352443
5284.45900875
5286.26965196
5288.17479422
5290.16198219
5292.21688126
5294.32340121
5296.46355922
5298.61844151
5300.76726961
5302.8893289
5304.961761
5306.9635325
5308.87135846
5310.66393213
5312.32244031
5313.81901414
5315.15782532
5316.27467084
5317.25846164
5317.9148139
5318.50182505
5268.35149246
5268.67291071
5268.89903727
5269.23696723
5269.56837652
5269.95272042
5270.3844614
5270.87697126
5271.4452471
5272.09739934
5272.84755021
5273.70346419
5274.67492688
5275.76767734
5276.98680819
5278.33448579
5279.81120004
5281.41380788
5283.137799
5284.97706628
5286.92316674
5288.96446508
5291.08762229
5293.2773876
5295.51681246
5297.78701617
5300.06817699
5302.33851883
5304.57651871
5306.75833182
5308.86207661
5310.86333821
5312.74018014
5314.47273695
5316.03225316
5317.42218924
5318.5774076
5319.58665174
5320.25609633
5320.84717679
5267.50534494
5267.82855562
5268.064329
5268.41927994
5268.77704553
5269.19652087
5269.67263464
5270.21823586
5270.84839088
5271.57060312
5272.39878808
5273.34007246
5274.403816
5275.5951004
5276.91843231
5278.37529201
5279.96551772
5281.6848676
5283.5283563
5285.48939815
5287.55842408
5289.72290466
5291.96884056
5294.28015189
5296.63904789
5299.02582624
5301.41993271
5303.79868727
5306.13983152
5308.41859138
5310.61239589
5312.69576769
5314.64627771
5316.44296265
5318.0565654
5319.48968038
5320.67662997
5321.70519826
5322.3837588
5322.97533055
5266.78980953
5267.11123923
5267.35339488
5267.7214132
5268.10148367
5268.55169269
5269.06736574
5269.66068923
5270.34678428
5271.13238499
5272.03121821
5273.04967673
5274.19670591
5275.47669901
5276.89361588
5278.44826101
5280.13984167
5281.9631018
5283.91269401
5285.98157676
5288.159103
5290.43201052
5292.78567374
5295.20330553
5297.66644226
5300.15463254
5302.6466985
5305.11919732
5307.54926622
5309.91122398
5312.18210252
5314.33542508
5316.34839204
5318.19893424
5319.85777192
5321.32592669
5322.53813503
5323.57928297
5324.26263128
5324.84813628
5266.20252578
5266.51724472
5266.76193429
5267.13903044
5267.53774901
5268.01512647
5268.56643085
5269.20305722
5269.93998039
5270.78304018
5271.74574195
5272.83368306
5274.05543382
5275.41470195
5276.91495478
5278.55635578
5280.33751651
5282.25232957
5284.29511714
5286.45832412
5288.73036366
5291.09744304
5293.54433559
5296.05357772
5298.6062126
5301.18116783
5303.75669399
5306.30867143
5308.81378543
5311.24549172
5313.58046079
5315.7913723
5317.85511366
5319.74869457
5321.44276021
5322.93712817
5324.16749918
5325.21509449
5325.89980778
5326.47384446
5265.74550603
5266.04944849
5266.29331661
5266.6762834
5267.08932537
5267.58903103
5268.17016803
5268.84338802
5269.62358
5270.51552095
5271.53258998
5272.6794852
5273.96447195
5275.39055515
5276.96076896
5278.6746631
5280.53029016
5282.52078762
5284.64035573
5286.88093802
5289.23006553
5291.67353222
5294.19565613
5296.77844161
5299.40253276
5302.04635889
5304.68780524
5307.3021271
5309.86577293
5312.35148178
5314.73580524
5316.99054256
5319.09269408
5321.01830158
5322.73819389
5324.25087432
5325.4929353
5326.54074037
5327.22258027
5327.77707821
5265.42655666
5265.7130078
5265.95013054
5266.33565487
5266.76046473
5267.28092139
5267.88963384
5268.5967215
5269.41626459
5270.35218003
5271.41753032
5272.61627728
5273.95639042
5275.44028675
5277.07063544
5278.84646278
5280.76541348
5282.81993568
5285.00392076
5287.30897319
5289.72198368
5292.22834574
5294.81200645
5297.45454811
5300.13622621
5302.83510226
5305.52878481
5308.19206007
5310.80110133
5313.32802429
5315.74918468
5318.03562128
5320.16386258
5322.10953867
5323.84307641
5325.36275028
5326.60566897
5327.64352468
5328.31568124
5328.83868953
5265.21352212
5265.47870896
5265.70873294
5266.0963788
5266.5288895
5267.06386367
5267.69196573
5268.42291796
5269.27060774
5270.23790396
5271.33785619
5272.5735888
5273.9528996
5275.47762168
5277.15016144
5278.96904405
5280.93162937
5283.02968913
5285.25744617
5287.60594195
5290.06141716
5292.6091069
5295.23275433
5297.91375881
5300.63208869
5303.36550561
5306.09157685
5308.78474167
5311.42118666
5313.97248999
5316.41510488
5318.71935721
5320.86206967
5322.81819857
5324.55823199
5326.08044545
5327.32160909
5328.3497674
5329.00814336
5329.49440911
5265.15891607
5265.39713019
5265.62139331
5266.01083718
5266.45385144
5267.00545323
5267.65301356
5268.40688866
5269.27923335
5270.27325973
5271.40129031
5272.66647265
5274.07622811
5275.63223177
5277.33659484
5279.18753291
5281.18252025
5283.31253229
5285.5714611
5287.95064615
5290.43592764
5293.01227802
5295.66329573
5298.37015349
5301.11284734
5303.86895718
5306.6159149
5309.32810543
5311.98153449
5314.54768476
5317.00261585
5319.31671018
5321.46522022
5323.42349008
5325.15910601
5326.67126575
5327.89424564
5328.89227587
5329.51461023
5329.93922763
5313.60077082
5313.47635462
5313.17697669
5312.73355484
5312.1434907
5311.40218107
5310.52646064
5309.51160287
5308.37388709
5307.1150403
5305.74881078
5304.28197133
5302.72696936
5301.09349782
5299.39364042
5297.63855809
5295.84034091
5294.01077695
5292.16189178
5290.30569164
5288.45352173
5286.61712537
5284.80812578
5283.03739096
5281.31561402
5279.65297889
5278.05959891
5276.54448856
5275.11728885
5273.78535766
5272.55833736
5271.44103103
5270.44390524
5269.56805355
5268.82505602
5268.21257654
5267.73916122
5267.40812117
5267.20221264
5267.1597583
5313.46972659
5313.38663353
5313.11613798
5312.69092822
5312.11544291
5311.38611118
5310.52100259
5309.51598227
5308.38764363
5307.13818496
5305.78141416
5304.32440046
5302.77959186
5301.15681187
5299.46813224
5297.72473197
5295.93863627
5294.12160326
5292.28561124
5290.44251314
5288.60393197
5286.78103873
5284.9855422
5283.22830612
5281.51989129
5279.87034226
5278.28959513
5276.78650452
5275.37043143
5274.04849366
5272.82989889
5271.71905094
5270.72581959
5269.85051575
5269.10429059
5268.48289313
5267.99574051
5267.64008822
5267.40928636
5267.33775059
5313.14021299
5313.08498198
5312.84033042
5312.43282644
5311.8710131
5311.1528094
5310.29727069
5309.30162858
5308.18220888
5306.94213584
5305.59489437
5304.1480217
5302.61381224
5301.00230791
5299.32552667
5297.59475629
5295.82201971
5294.01906342
5292.19781061
5290.37002006
5288.54722223
5286.74068382
5284.96174381
5283.22119081
5281.52943526
5279.89632381
5278.33155093
5276.84379135
5275.44206678
5274.13335295
5272.92635513
5271.82543267
5270.83975173
5269.96956612
5269.22527279
5268.60162938
5268.10858893
5267.73924038
5267.4965239
5267.41491805
5312.65253785
5312.61390817
5312.38639534
5311.99598998
5311.44954816
5310.74612571
5309.9046445
5308.92322497
5307.81799341
5306.59275628
5305.26086588
5303.83029003
5302.31326558
5300.72004264
5299.06260896
5297.35230591
5295.60109544
5293.8206941
5292.0229378
5290.21946712
5288.42171296
5286.64082249
5284.88785154
5283.17338361
5281.50763033
5279.90019152
5278.36043224
5276.89672246
5275.5176395
5274.22983551
5273.04144368
5271.95653156
5270.9836275
5270.12277467
5269.38406985
5268.76213482
5268.26836445
5267.89600495
5267.65453908
5267.58202946
5311.99988118
5311.9746324
5311.76033028
5311.38508125
5310.85257133
5310.16335947
5309.33591411
5308.36925978
5307.27927585
5306.07039507
5304.75582627
5303.34389813
5301.84678547
5300.27491201
5298.64023549
5296.95414539
5295.2285537
5293.47513791
5291.70563405
5289.93155804
5288.16419898
5286.41456363
5284.69343116
5283.01111341
5281.37754295
5279.80202212
5278.29355947
5276.86019321
5275.51006447
5274.24951751
5273.0861752
5272.02391092
5271.07070023
5270.22659576
5269.50124847
5268.8896308
5268.40320915
5268.03678983
5267.80063864
5267.73825138
5311.18027692
5311.16596699
5310.96231402
5310.60150732
5310.08312418
5309.40935929
5308.5978808
5307.6484412
5306.57669129
5305.3875379
5304.09411864
5302.70505429
5301.23250652
5299.68704346
5298.08060855
5296.42462006
5294.7309328
5293.01115523
5291.27690001
5289.53952809
5287.81014667
5286.09954648
5284.41821415
5282.77614705
5281.18293471
5279.64751861
5278.17849502
5276.78350519
5275.47021912
5274.24460896
5273.1138019
5272.08143437
5271.15502274
5270.33470694
5269.62978749
5269.03606819
5268.56452155
5268.21281465
5267.98830321
5267.94112447
5310.21163706
5310.20727496
5310.01289536
5309.66584222
5309.1614605
5308.50367451
5307.70929969
5306.77873042
5305.72743824
5304.56070335
5303.29163656
5301.92908688
5300.48522425
5298.97072713
5297.39752799
5295.77705084
5294.12108361
5292.44114536
5290.74870573
5289.05494388
5287.37074845
5285.70665082
5284.07281274
5282.47887579
5280.93403872
5279.44683263
5278.02540508
5276.6769582
5275.4086798
5274.22614087
5273.13599362
5272.14161768
5271.25009511
5270.46162614
5269.78504409
5269.21696558
5268.76718523
5268.43615591
5268.22672901
5268.19483555
5309.09053326
5309.09551901
5308.910403
5308.57741323
5308.0879326
5307.44753655
5306.67220633
5305.7628918
5304.73494704
5303.59395099
5302.35304231
5301.0212544
5299.6107986
5298.13244179
5296.59811176
5295.0192209
5293.40747924
5291.77429387
5290.13096918
5288.48847188
5286.85743232
5285.24807514
5283.6701972
5282.13303737
5280.64535113
5279.21520277
5277.85023996
5276.55716772
5275.34265066
5274.21179726
5273.17076349
5272.22260604
5271.37396445
5270.6250422
5269.98411213
5269.44860279
5269.02667936
5268.7218579
5268.5309285
5268.51673032
5307.83552963
5307.84960076
5307.67345743
5307.35472359
5306.88085892
5306.25913291
5305.50471195
5304.61903872
5303.61739409
5302.50559297
5301.29683577
5300.00030388
5298.62826178
5297.1915427
5295.70206916
5294.17122227
5292.61062024
5291.03153356
5289.44507437
5287.86196303
5286.29253311
5284.74665742
5283.23372343
5281.76251875
5280.34130425
5278.97762168
5277.67856843
5276.45029488
5275.29889899
5274.22896658
5273.24612355
5272.35303061
5271.55584159
5270.85466384
5270.25711282
5269.76125915
5269.37340546
5269.09971153
5268.93074414
5268.93479384
5306.44991469
5306.47323603
5306.30673124
5306.00322996
5305.54643807
5304.94527646
5304.21415614
5303.35497448
5302.38299607
5301.30424038
5300.13200575
5298.87560489
5297.54736956
5296.15818407
5294.71996556
5293.24404824
5291.74194361
5290.22476096
5288.70338966
5287.18826826
5285.68939385
5284.21624033
5282.77773768
5281.38216849
5280.03724264
5278.74991594
5277.52667363
5276.37304417
5275.29449676
5274.2950153
5273.37963208
5272.55051336
5271.81324792
5271.16771784
5270.62076365
5270.17096489
5269.82253949
5269.5842694
5269.43996945
5269.46380754
5304.94982651
5304.9826477
5304.8261219
5304.53873083
5304.10037459
5303.52168858
5302.81634264
5301.98666436
5301.04793219
5300.00634233
5298.87531095
5297.66426312
5296.38560624
5295.05025914
5293.67012578
5292.25647495
5290.82069177
5289.37369619
5287.92612525
5286.48809609
5285.06922447
5283.67853768
5282.32445688
5281.01470207
5279.7563724
5278.55577309
5277.41871098
5276.35001791
5275.35446801
5274.43536002
5273.59705886
5272.84113775
5272.17253946
5271.59079484
5271.10186925
5270.70469667
5270.40129315
5270.20280731
5270.08624403
5270.13082904
5303.34399945
5303.38684694
5303.24117164
5302.97125637
5302.5531596
5301.99926863
5301.32253512
5300.52571141
5299.62412386
5298.62413557
5297.53930247
5296.37915104
5295.15617028
5293.88130381
5292.56643395
5291.2227434
5289.86146941
5288.49331357
5287.12862678
5285.77716495
5284.44811566
5283.15000822
5281.89069919
5280.67728572
5279.51619121
5278.41300027
5277.37276898
5276.39955119
5275.49734605
5274.66867301
5273.9171406
5273.24361735
5272.65229796
5272.14223231
5271.71839619
5271.37994915
5271.12657105
5270.97177136
5270.88542167
5270.95203773
5301.64723305
5301.7006409
5301.56654125
5301.31544458
5300.91942595
5300.3927199
5299.74755163
5298.98709988
5298.12675662
5297.173042
5296.13966149
5295.0362334
5293.8753272
5292.66789744
5291.42579139
5290.16008402