/*--------------------------------*- C++ -*----------------------------------*\
| =========                 |                                                 |
| \\      /  F ield         | foam-extend: Open Source CFD                    |
|  \\    /   O peration     | Version:     4.1                                |
|   \\  /    A nd           | Web:         http://www.foam-extend.org         |
|    \\/     M anipulation  |                                                 |
\*---------------------------------------------------------------------------*/
FoamFile
{
    version     2.0;
    format      ascii;
    class       regIOobject;
    location    "0.9/uniform";
    object      profilingInfo;
}
// * * * * * * * * * * * * * * * * * * * * * * * * * * * * * * * * * * * * * //

profilingInfo
(

    {
        id              27;
        parentId        26;
        description     "Foam::Time::writeObject - outputTime";
        calls           9;
        totalTime       7.967017;
        childTime       0;
        onStack         1;
    }

    {
        id              26;
        parentId        1;
        description     "Foam::Time::writeObject";
        calls           104;
        totalTime       7.967503;
        childTime       7.967017;
        onStack         1;
    }

    {
        id              1;
        description     "application::main";
        calls           1;
        totalTime       153.208258;
        childTime       72.390409;
        onStack         1;
    }

    {
        id              9;
        parentId        1;
        description     "MULES::explicitSolve";
        calls           312;
        totalTime       7.265993;
        childTime       0;
        onStack         0;
    }

    {
        id              4;
        parentId        1;
        description     "functionObjectList::read";
        calls           1;
        totalTime       7e-06;
        childTime       0;
        onStack         0;
    }

    {
        id              10;
        parentId        1;
        description     "fvMatrix::solve_U";
        calls           104;
        totalTime       11.253157;
        childTime       10.797339;
        onStack         0;
    }

    {
        id              5;
        parentId        1;
        description     "fvMatrix::solve_cellDisplacement";
        calls           104;
        totalTime       1.970052;
        childTime       1.520486;
        onStack         0;
    }

    {
        id              22;
        parentId        1;
        description     "fvMatrix::solve_epsilon";
        calls           104;
        totalTime       2.76571;
        childTime       2.179863;
        onStack         0;
    }

    {
        id              24;
        parentId        1;
        description     "fvMatrix::solve_k";
        calls           104;
        totalTime       2.58724;
        childTime       2.514985;
        onStack         0;
    }

    {
        id              2;
        parentId        1;
        description     "fvMatrix::solve_pcorr";
        calls           1;
        totalTime       0.003828;
        childTime       0.003052;
        onStack         0;
    }

    {
        id              17;
        parentId        1;
        description     "fvMatrix::solve_pd";
        calls           416;
        totalTime       38.576919;
        childTime       38.280755;
        onStack         0;
    }

    {
        id              12;
        parentId        11;
        description     "lduMatrix::smoother_Ux";
        calls           104;
        totalTime       3.118159;
        childTime       0;
        onStack         0;
    }

    {
        id              14;
        parentId        13;
        description     "lduMatrix::smoother_Uy";
        calls           104;
        totalTime       3.140375;
        childTime       0;
        onStack         0;
    }

    {
        id              16;
        parentId        15;
        description     "lduMatrix::smoother_Uz";
        calls           104;
        totalTime       3.537482;
        childTime       0;
        onStack         0;
    }

    {
        id              11;
        parentId        10;
        description     "lduMatrix::solver_Ux";
        calls           104;
        totalTime       3.450929;
        childTime       3.118159;
        onStack         0;
    }

    {
        id              13;
        parentId        10;
        description     "lduMatrix::solver_Uy";
        calls           104;
        totalTime       3.473757;
        childTime       3.140375;
        onStack         0;
    }

    {
        id              15;
        parentId        10;
        description     "lduMatrix::solver_Uz";
        calls           104;
        totalTime       3.872653;
        childTime       3.537482;
        onStack         0;
    }

    {
        id              6;
        parentId        5;
        description     "lduMatrix::solver_cellDisplacementx";
        calls           104;
        totalTime       0.524488;
        childTime       0;
        onStack         0;
    }

    {
        id              7;
        parentId        5;
        description     "lduMatrix::solver_cellDisplacementy";
        calls           104;
        totalTime       0.499082;
        childTime       0;
        onStack         0;
    }

    {
        id              8;
        parentId        5;
        description     "lduMatrix::solver_cellDisplacementz";
        calls           104;
        totalTime       0.496916;
        childTime       0;
        onStack         0;
    }

    {
        id              19;
        parentId        18;
        description     "lduMatrix::solver_coarsestLevelCorr";
        calls           835;
        totalTime       0.02019;
        childTime       0;
        onStack         0;
    }

    {
        id              21;
        parentId        20;
        description     "lduMatrix::solver_coarsestLevelCorr";
        calls           464;
        totalTime       0.008222;
        childTime       0;
        onStack         0;
    }

    {
        id              20;
        parentId        18;
        description     "lduMatrix::solver_dummy";
        calls           104;
        totalTime       20.025161;
        childTime       0.008222;
        onStack         0;
    }

    {
        id              23;
        parentId        22;
        description     "lduMatrix::solver_epsilon";
        calls           104;
        totalTime       2.179863;
        childTime       0;
        onStack         0;
    }

    {
        id              25;
        parentId        24;
        description     "lduMatrix::solver_k";
        calls           104;
        totalTime       2.514985;
        childTime       0;
        onStack         0;
    }

    {
        id              3;
        parentId        2;
        description     "lduMatrix::solver_pcorr";
        calls           1;
        totalTime       0.003052;
        childTime       0;
        onStack         0;
    }

    {
        id              18;
        parentId        17;
        description     "lduMatrix::solver_pd";
        calls           416;
        totalTime       38.280755;
        childTime       20.045351;
        onStack         0;
    }
);


// ************************************************************************* //
