/*--------------------------------*- C++ -*----------------------------------*\
| =========                 |                                                 |
| \\      /  F ield         | foam-extend: Open Source CFD                    |
|  \\    /   O peration     | Version:     4.1                                |
|   \\  /    A nd           | Web:         http://www.foam-extend.org         |
|    \\/     M anipulation  |                                                 |
\*---------------------------------------------------------------------------*/
FoamFile
{
    version     2.0;
    format      ascii;
    class       volScalarField;
    location    "1";
    object      alpha1;
}
// * * * * * * * * * * * * * * * * * * * * * * * * * * * * * * * * * * * * * //

dimensions      [0 0 0 0 0 0 0];

internalField   nonuniform List<scalar> 
96000
(
0.999998626136
0.999998492842
0.999998568208
0.999998692519
0.999998711305
0.999998597581
0.999998467867
0.999998357396
0.999998277857
0.999998247739
0.999998185642
0.999998160801
0.999998185642
0.99999821023
0.999998343392
0.999998399478
0.999998431626
0.999998527072
0.999998566412
0.999998550604
0.999998562199
0.999998626561
0.999998670204
0.999998679758
0.999998697345
0.999998735234
0.999998764114
0.999998757618
0.999998723016
0.99999871136
0.999998699111
0.999998661917
0.999998609824
0.999998603301
0.999998675182
0.999998724078
0.999998654384
0.999998595853
0.999998651137
0.999998942809
0.999998504227
0.999998446264
0.999998581219
0.999998706951
0.999998697597
0.999998584288
0.999998444184
0.999998321289
0.999998259071
0.99999824254
0.999998224594
0.999998223606
0.999998251561
0.999998309296
0.999998368534
0.999998427928
0.999998482992
0.999998532879
0.999998577054
0.999998609249
0.999998651295
0.999998690011
0.999998724126
0.999998754133
0.999998783983
0.999998804573
0.999998813002
0.999998810586
0.999998793803
0.99999876228
0.999998736325
0.999998721808
0.999998729733
0.999998754708
0.999998788097
0.999998786605
0.999998737272
0.999998629503
0.999998641986
0.999998966757
0.999998594892
0.999998614975
0.999998812296
0.99999894332
0.999998947705
0.999998854305
0.999998728653
0.99999862564
0.999998563827
0.999998537954
0.999998542808
0.999998564654
0.999998598206
0.99999864275
0.999998692445
0.999998743292
0.999998790405
0.999998832566
0.999998873061
0.999998912256
0.999998948255
0.999998981362
0.999999014058
0.999999043936
0.999999068345
0.999999085677
0.999999093554
0.999999089717
0.99999907482
0.999999050325
0.999999025349
0.999999013099
0.999999028063
0.999999059911
0.999999079629
0.999999070322
0.99999901742
0.999998896556
0.999998772406
0.999999093847
0.999998754423
0.999998784619
0.999998993591
0.999999148571
0.999999170626
0.99999910208
0.999998989836
0.999998892999
0.999998836898
0.999998819433
0.999998825348
0.999998846072
0.99999888039
0.999998924601
0.99999897234
0.999999018321
0.999999059864
0.999999097462
0.999999132595
0.999999166385
0.999999199135
0.999999230817
0.999999260761
0.999999287732
0.999999310174
0.999999325772
0.999999332367
0.999999327978
0.999999312864
0.999999289085
0.999999265605
0.999999255566
0.999999272731
0.99999930851
0.999999332846
0.999999324371
0.999999267978
0.999999134266
0.999998987558
0.99999924289
0.999998858889
0.999998841311
0.999999052707
0.999999232835
0.99999927788
0.999999208132
0.999999110265
0.999999022614
0.999998974895
0.999998965667
0.999998977463
0.999999000422
0.999999034565
0.999999080315
0.999999130594
0.999999176116
0.999999215278
0.999999251578
0.999999285862
0.999999317253
0.999999348049
0.999999379821
0.999999410862
0.999999439937
0.999999465984
0.99999948698
0.999999499933
0.999999499738
0.999999490066
0.999999472588
0.999999453207
0.999999449484
0.999999475477
0.999999520818
0.999999557339
0.999999508476
0.999999387892
0.999999231528
0.999999192443
0.999999282466
0.999998772614
0.999998789688
0.999999022898
0.999999211608
0.999999263609
0.999999196109
0.999999085904
0.999998991838
0.999998939337
0.999998932419
0.999998949049
0.999998968476
0.999998996434
0.999999041416
0.99999909727
0.999999147366
0.99999918646
0.999999216995
0.999999243173
0.999999266633
0.999999289154
0.999999316351
0.999999345559
0.999999372752
0.999999397671
0.999999418865
0.999999434651
0.999999437001
0.999999420714
0.999999387563
0.999999349615
0.999999328817
0.999999348572
0.999999400337
0.999999445078
0.999999419571
0.999999293966
0.999999098829
0.999998976884
0.99999914832
0.999998664322
0.999998705535
0.999998961935
0.999999154839
0.999999205467
0.999999135201
0.999999014447
0.999998910176
0.999998843646
0.999998829503
0.999998840299
0.999998859957
0.999998894028
0.999998939064
0.999998987178
0.999999036686
0.999999075538
0.999999095684
0.99999910948
0.999999139371
0.999999176723
0.999999208017
0.999999232741
0.999999252805
0.999999263915
0.999999273197
0.999999278137
0.999999284037
0.999999269886
0.999999229525
0.999999169158
0.999999102469
0.999999100552
0.999999196148
0.999999277067
0.999999255529
0.999999134127
0.999998919351
0.999998634455
0.99999899868
0.999998620333
0.999998651884
0.999998909374
0.99999910636
0.999999157488
0.999999084895
0.999998960225
0.999998842629
0.999998802007
0.999998797739
0.999998806916
0.999998828542
0.999998877678
0.999998921455
0.999998952157
0.999998983224
0.999999017055
0.999999052948
0.999999085421
0.999999114025
0.999999149919
0.999999184032
0.999999206269
0.999999224288
0.999999237372
0.999999229992
0.999999211158
0.999999193018
0.999999162406
0.999999109377
0.999999066201
0.999999057288
0.999999058308
0.999999067216
0.9999991154
0.99999909944
0.999998995359
0.999998780024
0.999998546941
0.999998901307
0.999998582611
0.999998617121
0.999998876094
0.999999079574
0.999999135615
0.99999906175
0.99999894004
0.999998823522
0.999998796286
0.999998797881
0.9999988121
0.999998833525
0.999998892327
0.999998948166
0.999998978216
0.999999004559
0.999999034916
0.999999081084
0.999999124901
0.999999152649
0.999999183979
0.999999212158
0.999999235475
0.999999256735
0.999999278599
0.999999288892
0.99999927346
0.999999239519
0.999999196243
0.999999144092
0.999999093663
0.999999085987
0.999999101598
0.999999097311
0.99999907073
0.999999059537
0.999998962777
0.99999875084
0.999998587027
0.999998889683
0.999998558864
0.999998592829
0.999998853387
0.999999065953
0.999999128223
0.999999054007
0.999998937331
0.999998830037
0.999998802607
0.99999880999
0.999998832364
0.999998857373
0.999998891327
0.999998950926
0.999999003386
0.999999048506
0.999999081142
0.999999108557
0.999999142103
0.999999193981
0.99999922496
0.999999244565
0.999999269007
0.99999929153
0.999999310458
0.999999337561
0.999999351901
0.999999314849
0.999999270698
0.999999221131
0.999999157963
0.999999128292
0.999999138805
0.999999142297
0.999999132255
0.999999117013
0.99999898909
0.999998775848
0.999998831178
0.99999893224
0.999998557038
0.999998562792
0.999998831372
0.999999053135
0.999999121556
0.999999047439
0.999998932709
0.999998833546
0.999998793951
0.999998808042
0.999998840631
0.999998871251
0.999998900494
0.999998950499
0.999999015145
0.999999078987
0.999999123561
0.999999137039
0.999999158195
0.999999195756
0.999999229978
0.999999254371
0.999999278359
0.999999305309
0.999999322395
0.999999334713
0.999999353903
0.99999936354
0.999999336479
0.999999276111
0.999999195003
0.999999123584
0.999999111189
0.999999143409
0.999999239754
0.999999151613
0.999998987774
0.999998765243
0.99999853952
0.999998910856
0.999998518461
0.999998527819
0.999998806538
0.999999037168
0.999999112048
0.999999037812
0.999998921799
0.999998818152
0.999998781485
0.999998799591
0.999998829104
0.999998863199
0.999998900435
0.999998954257
0.999999015773
0.999999071033
0.999999114221
0.999999145112
0.999999160928
0.999999176364
0.999999201324
0.999999232427
0.999999264088
0.999999291255
0.999999309998
0.999999315946
0.999999313736
0.999999324012
0.999999311331
0.999999262184
0.999999179629
0.999999081162
0.999999095437
0.999999167076
0.99999917507
0.999999094434
0.999998934932
0.999998697195
0.99999837217
0.999998850166
0.999998466138
0.999998498986
0.999998784589
0.999999022314
0.999999103569
0.999999028781
0.999998910835
0.999998799872
0.99999877289
0.999998791834
0.999998813282
0.99999884929
0.999998893089
0.999998949221
0.999999006853
0.999999046947
0.999999074095
0.999999110952
0.999999142603
0.99999915562
0.99999916797
0.999999198383
0.99999923489
0.999999254086
0.999999265166
0.999999275311
0.999999266334
0.999999255176
0.999999229317
0.999999172769
0.999999092634
0.999999048864
0.999999025934
0.999999078311
0.999999045359
0.999998975628
0.999998834159
0.999998594312
0.999998362871
0.999998778032
0.999998437886
0.999998470966
0.999998772058
0.999999012429
0.999999101337
0.999999024929
0.999998905747
0.999998790723
0.999998770674
0.999998790199
0.999998815462
0.999998853592
0.999998895933
0.999998945406
0.999998996295
0.999999036809
0.999999065774
0.999999094175
0.999999115611
0.999999135122
0.999999159771
0.999999183727
0.999999192657
0.99999921137
0.999999228357
0.999999214848
0.99999920531
0.999999211957
0.999999167473
0.999999060468
0.999999016447
0.999999009463
0.99999887126
0.999998863164
0.999998919826
0.999998878965
0.999998729032
0.999998479928
0.999998413218
0.999998687566
0.999998429272
0.999998459813
0.999998764299
0.999999008215
0.999999107288
0.999999026721
0.999998906777
0.999998790957
0.999998773803
0.999998791444
0.99999883343
0.999998869248
0.999998908379
0.999998949168
0.9999989919
0.99999904945
0.999999099601
0.999999111099
0.999999115295
0.999999125337
0.999999159063
0.999999182453
0.999999186092
0.999999194628
0.999999227073
0.999999203649
0.999999193173
0.999999185426
0.999999133366
0.999999058924
0.999999015133
0.999998879124
0.99999883992
0.999998832208
0.999998870685
0.999998839182
0.999998656351
0.999998373759
0.999998364777
0.999998568782
0.999998418776
0.999998453594
0.999998760873
0.999999007611
0.999999117826
0.999999031265
0.999998910203
0.99999879581
0.999998776476
0.999998800984
0.999998849867
0.999998880901
0.999998914775
0.999998958729
0.999999005421
0.999999059769
0.999999106723
0.999999112089
0.999999116885
0.999999126715
0.999999143501
0.999999175331
0.999999193328
0.999999196421
0.999999183668
0.999999259987
0.999999299551
0.999999181643
0.999999122908
0.999999121941
0.999999020237
0.999998827754
0.999998831807
0.999998833059
0.999998929243
0.999998809646
0.999998610872
0.999998318566
0.999998084954
0.999998551007
0.999998409678
0.999998449027
0.999998758497
0.999999008114
0.999999128251
0.99999903602
0.999998912716
0.999998799279
0.999998776133
0.999998807164
0.999998857462
0.999998885269
0.999998914674
0.999998966482
0.999999021714
0.999999052145
0.999999075402
0.999999094557
0.999999115715
0.999999131636
0.999999138507
0.999999157542
0.999999222867
0.999999181607
0.999999171397
0.999999217604
0.999999259179
0.999999226798
0.999999114852
0.999999107529
0.99999893993
0.999998819609
0.999998823496
0.999998909262
0.999998880832
0.999998735912
0.999998584205
0.999998294092
0.999998070094
0.999998554952
0.999998404497
0.999998444717
0.999998756916
0.999999008641
0.999999137792
0.999999040493
0.999998913767
0.999998798727
0.999998774359
0.999998808692
0.999998858605
0.999998889677
0.999998917682
0.999998957814
0.999999014333
0.999999058418
0.999999068322
0.999999078226
0.999999099553
0.999999126679
0.99999912935
0.999999134472
0.999999153194
0.999999183241
0.999999179651
0.999999124121
0.999999067632
0.999999140135
0.999999213052
0.999999038084
0.999998811027
0.999998811454
0.999998868821
0.999998849617
0.999998732855
0.99999867718
0.999998566686
0.999998291577
0.999998057644
0.999998559432
0.99999841894
0.999998443218
0.999998755929
0.999999009305
0.999999148041
0.999999045763
0.99999891531
0.999998794776
0.999998773734
0.999998812287
0.999998861587
0.999998891927
0.999998919554
0.999998950055
0.999999003841
0.999999063573
0.999999072695
0.999999080973
0.999999095383
0.999999106982
0.999999116262
0.999999124066
0.999999132197
0.999999189158
0.999999234016
0.99999906174
0.999999034517
0.999999042904
0.999999174911
0.999998916694
0.999998803197
0.999998906949
0.999998882704
0.999998747161
0.99999874497
0.999998789849
0.999998539072
0.999998232
0.999998356194
0.999998498798
0.999998412591
0.99999844517
0.999998755121
0.999999010418
0.999999160058
0.99999905306
0.999998919783
0.999998789928
0.999998776078
0.999998819551
0.999998877828
0.999998892653
0.999998916311
0.999998968139
0.999999011542
0.999999036644
0.99999907106
0.999999103175
0.999999107459
0.999999103159
0.999999108694
0.999999116754
0.999999152538
0.999999147188
0.999999137958
0.9999991223
0.999999060225
0.99999906529
0.999999036923
0.999998918378
0.99999882902
0.999998842274
0.999998812376
0.999998738372
0.999998782296
0.999998773819
0.999998506406
0.999998144608
0.999997955023
0.999998367136
0.999998386419
0.999998440933
0.999998754504
0.999999012639
0.999999174894
0.999999062734
0.999998926992
0.999998791061
0.999998782431
0.999998824527
0.99999889385
0.999998906756
0.999998928535
0.999998982149
0.999999011695
0.999999033577
0.999999101848
0.999999125471
0.999999101233
0.999999102568
0.999999111263
0.999999222496
0.999999176954
0.999999104037
0.999999097951
0.999999217991
0.999999324493
0.999999070389
0.999999026563
0.999999112945
0.999998916056
0.999998730666
0.999998722431
0.999998782505
0.999998646529
0.999998548351
0.999998412694
0.999998097716
0.999997936808
0.99999844051
0.999998360842
0.999998433432
0.999998755065
0.999999016187
0.99999919264
0.999999074267
0.999998934931
0.999998797903
0.999998789853
0.999998836174
0.999998901068
0.99999892651
0.999998951568
0.999998973485
0.999999012575
0.99999908686
0.99999914099
0.999999106487
0.999999104668
0.999999109242
0.999999224562
0.999999235929
0.999999124153
0.999999103199
0.999999105233
0.999999260244
0.999999274783
0.999999125598
0.999999017127
0.999998931969
0.999998842794
0.999998722416
0.99999871419
0.999998852957
0.999998696283
0.999998354399
0.999998323785
0.999998153042
0.999997929503
0.999998603217
0.999998358517
0.999998429395
0.999998756206
0.999999020187
0.999999210853
0.999999086746
0.99999894317
0.999998804304
0.999998794334
0.999998854204
0.999998912936
0.999998936048
0.999998954562
0.999998975045
0.999999040488
0.999999132606
0.999999115626
0.999999108852
0.999999112616
0.99999920703
0.999999210717
0.999999119477
0.999999122802
0.999999237159
0.999999352734
0.999999116835
0.99999901736
0.999999322591
0.999999183816
0.999998793347
0.999998785861
0.999999011226
0.999998711635
0.999998703282
0.999998945799
0.999998669031
0.999998481977
0.99999815797
0.999997936189
0.999998518614
0.999998378449
0.999998432389
0.999998755585
0.999999023603
0.999999226937
0.99999909892
0.999998951227
0.999998809167
0.99999879595
0.999998861176
0.999998930737
0.999998942721
0.999998947524
0.999998991049
0.999999075368
0.999999104649
0.999999099829
0.999999107709
0.999999204998
0.999999237758
0.999999119477
0.999999110517
0.999999187314
0.999999411819
0.999999299608
0.99999901736
0.999999008547
0.999999278541
0.999999342912
0.999999057574
0.999998823541
0.999998770819
0.99999893671
0.999998627575
0.999998575292
0.999998970332
0.999998694095
0.99999808575
0.999997946316
0.999998097889
0.99999839583
0.999998433933
0.999998752888
0.999999025905
0.999999240562
0.999999109955
0.999998959136
0.999998811511
0.999998798046
0.99999885541
0.999998949667
0.999998954152
0.999998953029
0.999998994474
0.99999907243
0.999999077319
0.999999089973
0.999999182627
0.99999923467
0.999999124249
0.999999113231
0.999999152595
0.999999408917
0.999999282199
0.999999087224
0.999999096349
0.999999194723
0.999999087048
0.999999036677
0.999999230114
0.99999910485
0.999998658822
0.999998682565
0.999998536527
0.999998485364
0.999998717804
0.999998577176
0.999998173987
0.999998561681
0.99999860658
0.99999835593
0.999998423719
0.999998749142
0.999999026514
0.99999925553
0.999999119901
0.999998966208
0.999998812633
0.999998801908
0.999998856129
0.999998953029
0.999998956385
0.999998960107
0.999999006962
0.999999039984
0.999999082228
0.999999148124
0.999999197689
0.999999134515
0.999999122778
0.999999130895
0.999999403989
0.999999303393
0.999999087224
0.999999078036
0.999999383051
0.999999349068
0.999998835643
0.999998792671
0.999999134754
0.999999150783
0.999998663552
0.999998559963
0.999998556846
0.999998586585
0.999998334049
0.999998330848
0.999998646628
0.999998513942
0.999998841995
0.999998352602
0.999998411283
0.999998743026
0.99999902458
0.99999927457
0.999999128706
0.999998970118
0.999998815128
0.999998805766
0.999998871539
0.999998949185
0.999998954945
0.999998980676
0.999999006361
0.999999022437
0.999999105739
0.999999222432
0.999999143745
0.99999912986
0.999999142915
0.999999414381
0.999999327213
0.99999910291
0.999999093758
0.999999309892
0.999999337663
0.999999167078
0.999998874909
0.999999021296
0.999998742028
0.999998683627
0.999998910292
0.999998747206
0.999998887747
0.999998914969
0.999998656134
0.999998327653
0.999998173964
0.999998126008
0.999998759241
0.999998376818
0.999998406502
0.999998731878
0.999999019686
0.999999288383
0.999999134743
0.99999896935
0.999998815019
0.999998803076
0.99999889015
0.999998956531
0.99999897005
0.999998974229
0.999998984725
0.999999041521
0.999999150139
0.99999921022
0.999999143684
0.999999136705
0.99999934666
0.999999451302
0.999999163725
0.999999143171
0.999999404472
0.999999386645
0.999998952035
0.999998933146
0.999999248501
0.999999339843
0.999999084703
0.999998659913
0.999998854297
0.999998769606
0.999998738833
0.999998825149
0.999998879948
0.999998746769
0.999998136142
0.999998128877
0.999998551617
0.999998373719
0.999998390634
0.999998715804
0.999999011821
0.999999286616
0.999999133742
0.999998962686
0.999998807186
0.999998795113
0.999998877453
0.999998956386
0.999998970615
0.999998944149
0.999998974793
0.999999084078
0.999999142997
0.999999100481
0.99999917645
0.999999337306
0.99999926018
0.999999180636
0.999999342109
0.999999466272
0.99999942248
0.999999108426
0.999998960486
0.99999914411
0.999999327988
0.999999321098
0.999999295595
0.999998907618
0.999998526872
0.999998472846
0.999998425442
0.999998417326
0.999998664948
0.999998762626
0.999998322243
0.999998196298
0.9999985252
0.999998266127
0.999998364726
0.999998700566
0.999999001491
0.999999272564
0.999999121887
0.999998944418
0.999998791106
0.999998766361
0.999998839071
0.99999891555
0.999998926784
0.999998922729
0.999998982176
0.999999039627
0.999999026529
0.999999088028
0.999999267645
0.999999198799
0.999999080101
0.999999165985
0.999999449988
0.99999943072
0.999999163115
0.999999066626
0.999999252515
0.999999279184
0.999998944469
0.999998838648
0.999999137181
0.999998932179
0.999998255877
0.999997974083
0.999997868281
0.999998100355
0.999998465536
0.99999845506
0.99999838239
0.999998532146
0.999998733833
0.999998210012
0.999998336947
0.999998689704
0.999998991691
0.999999255658
0.999999105363
0.999998916011
0.999998749437
0.999998731007
0.999998797605
0.999998855727
0.999998875442
0.999998890143
0.999998912038
0.999998908085
0.999998968375
0.999999131617
0.99999910163
0.999999013749
0.999999067554
0.999999352442
0.99999934315
0.999999092745
0.999999048682
0.999999290852
0.999999327278
0.999999032187
0.999998654569
0.999998719149
0.999998741235
0.999998547541
0.999998225939
0.999997949991
0.999997734715
0.999997911918
0.999998324215
0.999998278696
0.999998256859
0.99999848452
0.999998779117
0.999998213976
0.999998325623
0.999998681566
0.999998989618
0.999999260816
0.999999101761
0.999998903442
0.999998711174
0.999998685241
0.999998759772
0.999998824218
0.999998839888
0.999998810157
0.99999880296
0.999998862186
0.99999897692
0.9999990084
0.999998998998
0.999999005383
0.999999124503
0.999999341458
0.999999130282
0.999998968986
0.999999026761
0.99999932273
0.999999112469
0.999998705208
0.999998646445
0.999998609031
0.999998284557
0.999998064417
0.999998135269
0.999997916262
0.999997787715
0.999998161787
0.999997985603
0.999998095363
0.999998183259
0.99999837688
0.99999875634
0.999998263782
0.999998357515
0.999998684182
0.999999003694
0.999999312
0.999999127103
0.999998927143
0.999998722423
0.999998668885
0.999998733617
0.999998842144
0.999998823258
0.999998798156
0.999998797534
0.999998893821
0.999998943519
0.999998941656
0.999998978959
0.999999211583
0.99999915699
0.999999076881
0.999999138125
0.999999113116
0.999999041576
0.999999002934
0.999998920144
0.999998707948
0.999998427615
0.999998126681
0.999998142704
0.999998059535
0.999997725041
0.999997539167
0.999998042924
0.999997999493
0.999997721743
0.999997977897
0.999998204357
0.999998343207
0.999998736211
0.999998370257
0.999998378703
0.999998701805
0.99999904491
0.999999338336
0.999999180823
0.999998970758
0.999998778114
0.999998687717
0.999998770565
0.999998870765
0.999998833135
0.999998800107
0.999998839168
0.999998905582
0.999998943618
0.99999896788
0.999999003215
0.999999089409
0.999999284652
0.999999182439
0.999999011375
0.999998998491
0.999999222035
0.999999159494
0.999998852415
0.999998609311
0.999998190052
0.999997944439
0.999997980514
0.999997983968
0.999997360842
0.999997328527
0.999997951642
0.999997557256
0.999997828998
0.999998170094
0.999998182301
0.99999841491
0.999998788829
0.99999830063
0.999998377853
0.999998712567
0.999999058848
0.999999340882
0.999999203117
0.999998998634
0.999998825622
0.999998747122
0.999998783212
0.999998836683
0.999998842209
0.999998826261
0.999998836108
0.999998866051
0.999998937882
0.999999040041
0.999999023236
0.999999025325
0.999999138823
0.999999319268
0.999999017512
0.999998985605
0.99999918863
0.999999185644
0.999998833469
0.999998468533
0.999998287128
0.999997956968
0.999997713617
0.999997672374
0.999997326594
0.999997167847
0.999997207159
0.999997555078
0.999998125083
0.999998358955
0.999998312684
0.999998537742
0.999998881521
0.999998283078
0.999998356847
0.999998686778
0.999999041265
0.999999248139
0.999999141998
0.999998958514
0.999998793907
0.9999987152
0.999998734879
0.999998768013
0.999998775033
0.999998757703
0.999998757475
0.999998801999
0.999998874916
0.999998927877
0.999998958328
0.999999013301
0.999999062769
0.99999902345
0.9999990087
0.999999198523
0.999999060516
0.999998951455
0.99999873703
0.999998419612
0.999998310246
0.99999819957
0.999997885138
0.999997377569
0.999997246777
0.999997223832
0.999997323263
0.999997911727
0.999998304108
0.999998456258
0.999998563648
0.999998633642
0.999998921824
0.999998239531
0.999998259364
0.999998606825
0.999998963493
0.999999091739
0.999998980568
0.999998811865
0.999998659272
0.99999859255
0.999998609331
0.999998628481
0.999998610773
0.999998584722
0.99999859816
0.999998649427
0.999998690216
0.999998734807
0.999998835197
0.999998905168
0.999998851999
0.999998767471
0.999998889077
0.999999091526
0.999998910985
0.999998602311
0.999998421413
0.999998335405
0.999998180427
0.999998008608
0.999997762628
0.999997232942
0.999997195459
0.999997215427
0.999997738503
0.999998149144
0.999998228801
0.999998380352
0.999998418785
0.999998595042
0.999998939241
0.999998036181
0.999998088188
0.999998451369
0.99999879754
0.999998908276
0.999998753732
0.999998560968
0.999998396077
0.999998335614
0.999998341779
0.999998350011
0.999998319159
0.999998279415
0.999998294211
0.999998332754
0.999998380475
0.999998504022
0.999998613028
0.99999855915
0.999998496901
0.999998527288
0.999998687311
0.999998768693
0.999998664811
0.99999842186
0.999998132821
0.999997930798
0.999997797912
0.999997429991
0.999997090822
0.999997100402
0.99999721154
0.999997218644
0.999997314984
0.999997590276
0.999997883477
0.999998024633
0.999998074664
0.999998461833
0.999998820112
0.999998283043
0.999998231864
0.999998319906
0.999998667323
0.999998862454
0.999998632706
0.999998415378
0.999998200508
0.999998053086
0.999998047433
0.999998060175
0.999998148322
0.999998255234
0.999998237145
0.999998220447
0.999998353299
0.999998604574
0.999998296581
0.999998246218
0.999998268122
0.999998642859
0.999998789909
0.999998546352
0.999998486164
0.999998408961
0.999998190903
0.999997869182
0.999997569118
0.999997363072
0.999997199579
0.999997338059
0.999997477314
0.999997400106
0.999997380574
0.999997527308
0.999997923325
0.999998237728
0.999998306263
0.999998388061
0.999998817797
0.999998658509
0.999998647015
0.999998789315
0.999998989163
0.999999037782
0.999998899164
0.999998743521
0.999998649853
0.999998644604
0.999998641837
0.999998633136
0.999998600166
0.999998586949
0.999998612721
0.999998599542
0.999998640664
0.999998807932
0.999998860595
0.999998770317
0.999998716335
0.999998874135
0.999999014439
0.999998956277
0.999998847242
0.999998696956
0.999998539954
0.9999983801
0.999998183059
0.999998032329
0.999998095945
0.999998027424
0.999997775282
0.999997904233
0.999998123446
0.999998292359
0.999998487489
0.999998679538
0.999998738074
0.999998789019
0.999999183199
0.999998566108
0.999998483054
0.999998600415
0.999998703183
0.999998681431
0.999998569605
0.999998437653
0.999998319245
0.999998241827
0.999998216745
0.999998207475
0.999998185642
0.99999821023
0.999998265903
0.999998350112
0.999998407333
0.999998451042
0.999998499249
0.999998560108
0.999998594377
0.999998614899
0.999998661481
0.999998717767
0.999998750305
0.999998774689
0.999998794461
0.999998805393
0.9999987991
0.999998780653
0.999998764232
0.999998749617
0.999998706636
0.999998680403
0.999998716129
0.999998754983
0.999998760937
0.999998728138
0.999998661339
0.999998692921
0.999999024817
0.999998498874
0.9999985518
0.999998729287
0.999998820041
0.999998794318
0.999998686803
0.999998560685
0.999998461716
0.999998404449
0.999998380346
0.999998381183
0.999998397669
0.999998430098
0.999998481432
0.999998538016
0.999998594087
0.999998646632
0.999998695751
0.999998740806
0.999998782144
0.999998820162
0.999998855466
0.999998889591
0.999998921444
0.999998948193
0.999998967261
0.99999897634
0.999998972561
0.999998957531
0.999998935318
0.999998913396
0.999998906822
0.999998923352
0.999998952911
0.999998975172
0.999998966809
0.999998925117
0.99999884542
0.999998776825
0.999999051005
0.999998644136
0.999998764353
0.999998962048
0.999999073014
0.999999070157
0.999998986286
0.999998879497
0.999998796556
0.999998751392
0.999998736161
0.9999987413
0.999998762945
0.999998798604
0.99999884385
0.999998893211
0.999998942234
0.999998987989
0.999999030201
0.999999069637
0.999999107249
0.999999143175
0.999999176719
0.999999208133
0.99999923657
0.999999260211
0.999999276675
0.999999283795
0.999999280132
0.999999266687
0.999999246407
0.99999922779
0.999999224085
0.999999241415
0.999999271438
0.999999291027
0.999999276574
0.999999215687
0.999999107013
0.999998991237
0.999999163074
0.999998782584
0.999998900928
0.999999121263
0.999999257506
0.999999272561
0.999999211605
0.999999117798
0.999999042221
0.999999002589
0.999998992756
0.999999001927
0.999999025122
0.999999060256
0.999999102898
0.999999147882
0.999999191086
0.99999923049
0.999999266612
0.999999300522
0.999999333081
0.999999364452
0.999999394585
0.999999422613
0.999999447531
0.999999467898
0.999999481476
0.999999486535
0.999999481672
0.999999467655
0.999999447289
0.999999430339
0.999999426674
0.999999444944
0.9999994778
0.999999497466
0.999999480507
0.999999406518
0.999999275174
0.999999149129
0.999999284288
0.99999883111
0.999998933212
0.999999172117
0.999999329031
0.999999358289
0.999999299914
0.999999215831
0.999999143734
0.999999108374
0.999999103265
0.999999115297
0.999999139019
0.999999173225
0.999999213828
0.999999256104
0.999999296228
0.99999933191
0.999999363969
0.999999394055
0.999999423358
0.999999452163
0.999999479879
0.999999505517
0.99999952838
0.99999954693
0.999999559193
0.999999563686
0.999999558939
0.999999544619
0.999999522809
0.99999950289
0.999999496746
0.999999514865
0.999999550001
0.999999572839
0.999999544299
0.999999445521
0.999999287672
0.999999162606
0.999999287669
0.999998772489
0.99999889226
0.99999914631
0.999999314405
0.999999348971
0.999999292611
0.999999200086
0.9999991259
0.999999090821
0.99999908656
0.99999909893
0.999999122607
0.999999155874
0.999999194505
0.999999234658
0.999999272637
0.999999306107
0.999999335753
0.999999363326
0.999999390418
0.999999417343
0.999999443148
0.99999946677
0.999999487542
0.999999503716
0.999999513502
0.999999515123
0.999999507279
0.999999487958
0.999999459891
0.999999433546
0.999999423488
0.999999440542
0.999999478512
0.999999504797
0.999999477585
0.999999373501
0.999999200803
0.999999028506
0.999999184664
0.999998671326
0.999998827187
0.999999098114
0.999999272841
0.999999308853
0.999999249902
0.999999151676
0.999999075198
0.999999040944
0.999999037508
0.999999049947
0.999999073811
0.999999105258
0.999999142652
0.999999182644
0.99999921893
0.999999250932
0.999999280111
0.999999306649
0.999999330513
0.999999353022
0.999999375837
0.999999398016
0.999999417909
0.999999433822
0.999999442668
0.999999442301
0.999999429963
0.999999404373
0.999999369906
0.999999337515
0.999999326112
0.999999341338
0.999999375743
0.999999400218
0.999999373922
0.99999926713
0.99999908035
0.999998886822
0.999999052222
0.999998612877
0.999998774459
0.999999058665
0.999999236966
0.999999274591
0.999999213961
0.99999911505
0.999999040502
0.999999004069
0.999999001225
0.999999014905
0.999999038122
0.999999068143
0.999999107404
0.99999915087
0.999999189985
0.999999222618
0.999999249904
0.999999273338
0.999999295878
0.999999317399
0.999999339278
0.999999361129
0.999999380668
0.999999396109
0.999999406443
0.999999407592
0.999999396773
0.999999371173
0.999999334044
0.999999293837
0.999999269784
0.999999280126
0.999999316837
0.999999341114
0.9999993131
0.999999204035
0.999999012408
0.999998808352
0.999998974077
0.999998593655
0.999998742148
0.999999032859
0.999999214937
0.999999255248
0.99999919484
0.999999098041
0.999999027213
0.999998993815
0.999998994934
0.999999011334
0.999999036223
0.999999065559
0.99999910698
0.999999155588
0.999999197565
0.999999231759
0.999999258895
0.999999282477
0.999999305447
0.999999328346
0.999999352596
0.999999374954
0.99999939379
0.999999407099
0.999999415515
0.99999941873
0.999999410689
0.999999386061
0.999999347782
0.999999304228
0.999999271124
0.999999270685
0.999999302556
0.999999328536