/*--------------------------------*- C++ -*----------------------------------*\
| =========                 |                                                 |
| \\      /  F ield         | foam-extend: Open Source CFD                    |
|  \\    /   O peration     | Version:     4.1                                |
|   \\  /    A nd           | Web:         http://www.foam-extend.org         |
|    \\/     M anipulation  |                                                 |
\*---------------------------------------------------------------------------*/
FoamFile
{
    version     2.0;
    format      ascii;
    class       volScalarField;
    location    "1";
    object      epsilon;
}
// * * * * * * * * * * * * * * * * * * * * * * * * * * * * * * * * * * * * * //

dimensions      [0 2 -3 0 0 0 0];

internalField   nonuniform List<scalar> 
96000
(
0.00487696567055
0.005206307377
0.00558028299231
0.00582026441897
0.0059573569704
0.00603245956218
0.00607244128208
0.0060936310692
0.00610484976545
0.00611121536583
0.00611519164933
0.00611815721119
0.0061207034758
0.00612315353084
0.00612562297532
0.0061281708788
0.00613081315464
0.00613355137268
0.00613637328915
0.00613923191881
0.00614214640903
0.00614517822176
0.00614822464544
0.00615126811165
0.00615430926634
0.00615732707368
0.00616028399613
0.00616311503384
0.006165655233
0.00616760998372
0.00616824783846
0.00616623026905
0.00615861876057
0.00614025372082
0.00610106597244
0.00602433144384
0.00588096281777
0.00562879893024
0.00523467063334
0.00488423735024
0.00520500538214
0.0083874756446
0.0108571226836
0.0125428816921
0.0136106113648
0.0142668368235
0.014655609694
0.0148793288033
0.0150030386509
0.015070610261
0.015106928056
0.0151273376424
0.0151395734861
0.0151480627848
0.0151548050713
0.0151608984402
0.0151667876292
0.0151727020651
0.0151787194923
0.0151847873536
0.0151910301096
0.0151975454132
0.0152041452849
0.0152107651106
0.0152173126392
0.0152235586647
0.0152289429766
0.0152324446598
0.0152317012904
0.015222437024
0.0151958352473
0.0151369456703
0.0150182074644
0.0147970215356
0.014403662799
0.0137394611762
0.0126563145709
0.0109508781448
0.00843856683828
0.00520047174491
0.0055772762067
0.0108539986428
0.0151068487311
0.0180623476427
0.0200192559024
0.0212820025276
0.0220694944476
0.0225458977224
0.0228227910912
0.0229800059259
0.023066925569
0.023115447018
0.0231432742303
0.0231607965365
0.0231732324653
0.0231834335743
0.0231927030159
0.0232017116033
0.0232107205453
0.023219791187
0.0232290702803
0.0232386298288
0.0232482577942
0.0232577723775
0.0232668494925
0.0232748159648
0.0232801871976
0.0232801553283
0.0232689281368
0.0232362200813
0.0231626918022
0.0230168799456
0.0227456441728
0.0222710589054
0.0214748068314
0.0201978100876
0.0182137967519
0.015220153847
0.0108932819691
0.00556271634042
0.00581660797797
0.0125410228819
0.018064559091
0.0219888014106
0.0246695255864
0.0264568836963
0.0276111225166
0.0283340246191
0.028769619161
0.0290248928945
0.0291700684167
0.0292521849968
0.0292990705267
0.0293274972487
0.0293464726843
0.0293609778079
0.0293734525424
0.0293851540404
0.0293966338102
0.0294081129255
0.0294197729191
0.0294316560349
0.0294435141308
0.0294550309429
0.0294655624974
0.0294738248345
0.0294771465148
0.0294705306384
0.02944430202
0.0293816942033
0.0292530704285
0.0290117839502
0.0285835512029
0.0278634359554
0.0266999223731
0.0248964825189
0.0221831823947
0.0182105230526
0.0125896093488
0.0057977633556
0.00595358682121
0.013610704561
0.0200247584179
0.024673242429
0.0279252425915
0.0301471982799
0.0316197861371
0.0325665264144
0.0331528031229
0.0335051721761
0.033710364794
0.0338282648801
0.0338959327999
0.0339363139605
0.0339623031524
0.0339811551274
0.0339966043363
0.0340105934132
0.0340240253517
0.0340373112094
0.0340506785595
0.0340641307541
0.0340773793588
0.0340899433262
0.0341008103265
0.0341079973591
0.0341075295573
0.0340920943732
0.0340481172645
0.0339526177755
0.0337667070591
0.0334308856448
0.0328543013474
0.0319123456007
0.0304315914016
0.0281933470343
0.0249054742775
0.0202005875762
0.0136716163551
0.00593404810548
0.00602878502813
0.0142689003702
0.0212910256518
0.0264649004161
0.0301518990749
0.0327186775571
0.0344536307675
0.0355915590375
0.0363110710885
0.0367521424834
0.0370138745286
0.0371663630623
0.0372545056647
0.0373067429727
0.0373395678768
0.0373624599203
0.0373804566826
0.0373962133871
0.0374110148762
0.0374254727656
0.0374398695008
0.037454193924
0.0374681042051
0.037480939259
0.0374913050505
0.0374965043486
0.0374912683583
0.0374660644171
0.0374037234502
0.037275771882
0.0370355326008
0.0366132467403
0.0359056758589
0.0347745356697
0.0330327232373
0.0304495873677
0.0267241684558
0.0214873653785
0.0143377774345
0.00600950399862
0.00606889324243
0.014659277681
0.0220815363468
0.0276231319592
0.0316290892196
0.0344585128347
0.0364001075575
0.0376932546339
0.0385240377423
0.0390411800657
0.0393525817453
0.0395360934887
0.039642863424
0.0397059118708
0.0397448689057
0.0397712109931
0.0397911701194
0.0398080905226
0.0398236325969
0.0398386031111
0.0398533515976
0.0398678570728
0.0398817243265
0.0398941153579
0.0399032764559
0.0399058356993
0.0398953425768
0.0398602885619
0.0397804033392
0.0396226436027
0.0393341227275
0.038837276897
0.0380200222228
0.0367350590789
0.0347874613107
0.0319413315811
0.0278949481551
0.022285565077
0.0147282465269
0.00604899682658
0.00609020651706
0.0148842904673
0.0225604912372
0.0283496125063
0.0325801003147
0.03560113233
0.0376981221559
0.0391111174924
0.0400298736582
0.0406084615647
0.0409607264861
0.0411701201453
0.0412925318078
0.0413645928139
0.0414084897164
0.0414373695572
0.0414585051266
0.0414758480188
0.0414913990287
0.0415061453469
0.0415205048791
0.0415344602793
0.0415475635943
0.04155882301
0.0415661691032
0.041565646889
0.0415497998401
0.0415054761738
0.0414098924948
0.04122641991
0.0408974723
0.040339843016
0.0394354454097
0.0380314053176
0.0359289246514
0.032890879103
0.02861895291
0.0227594646295
0.0149458018096
0.0060689697073
0.00610148892729
0.0150087751521
0.0228391657598
0.0287878748418
0.0331696988751
0.0363244377446
0.0385329628515
0.0400340434657
0.0410187765197
0.0416442208614
0.0420280233762
0.042257501288
0.0423919653482
0.0424707542894
0.0425180251069
0.0425482537248
0.0425695580851
0.0425863989529
0.0426010677518
0.0426147076065
0.0426278034295
0.0426403499369
0.0426518597929
0.0426612152353
0.0426660919021
0.0426620662945
0.042640877477
0.0425880869785
0.0424789915693
0.0422742987382
0.0419130429892
0.0413081450884
0.0403376902134
0.0388456647888
0.0366318931747
0.033460229043
0.0290373824621
0.0230185571268
0.0150545141305
0.00607789829922
0.00610786714304
0.0150766969505
0.0229974892527
0.0290449322938
0.0335244007379
0.0367682638871
0.0390531247504
0.0406157958531
0.0416474316809
0.0423065784203
0.0427131771526
0.0429570814024
0.0430999550684
0.0431830729663
0.043232041262
0.0432623396837
0.0432827390412
0.0432980987421
0.0433109480581
0.0433225668343
0.0433334976357
0.0433437531251
0.0433528246075
0.0433595051091
0.0433612767002
0.0433533632565
0.0433269080684
0.0432665286575
0.0431461375074
0.0429245739971
0.0425385776809
0.041898576497
0.040880406509
0.0393265302394
0.037036825968
0.0337786212622
0.0292628473603
0.0231511315509
0.0151053098916
0.00608184974749
0.00611179752172
0.0151129141248
0.023084779781
0.0291909375346
0.0337308153233
0.0370315223819
0.0393662642794
0.0409699198838
0.0420331448896
0.0427150998581
0.0431370178918
0.0433903408946
0.0435382852905
0.0436234558955
0.0436724830004
0.0437015707184
0.0437199720342
0.0437328571884
0.0437429383118
0.043751607686
0.0437594637233
0.0437665427632
0.0437723319879
0.0437755655142
0.0437735958507
0.0437614025105
0.0437297125927
0.0436624958393
0.0435327256479
0.0432980196155
0.0428936629646
0.0422291117779
0.04118055035
0.0395892115038
0.0372555157421
0.0339460495637
0.029376449566
0.0232128776952
0.0151255013496
0.00608356612522
0.00611467028333
0.0151328389946
0.0231330597896
0.0292730341122
0.0338488959662
0.0371843748916
0.0395502535663
0.0411798518536
0.0422631743538
0.0429595441354
0.0433908615699
0.0436495287695
0.0437997520245
0.0438850180294
0.0439326522875
0.0439593740903
0.0439747870228
0.0439842855708
0.0439907278978
0.0439955978477
0.0439995494934
0.0440026473754
0.0440043864542
0.0440034755527
0.0439971911998
0.0439803576575
0.0439434359543
0.0438700014686
0.0437326757009
0.0434914699589
0.0430797858505
0.0424047473327
0.0413400599236
0.0397267253919
0.0373663934528
0.0340273047318
0.0294282151405
0.0232380088219
0.0151321571925
0.00608500598846
0.00611707272528
0.015144219956
0.0231600492172
0.0293190980519
0.0339157811782
0.0372717706043
0.0396562824264
0.04130150092
0.042396828237
0.0431015479554
0.04353787742
0.0437987877309
0.0439490947665
0.0440328655039
0.0440778990656
0.0441012666204
0.0441128232206
0.0441181332089
0.0441201695488
0.0441204974815
0.0441198186555
0.0441182355865
0.0441152649485
0.0441096130012
0.0440985245956
0.0440767715369
0.0440361201714
0.0439635587046
0.0438291110331
0.0435878322997
0.0431729805588
0.042491264077
0.0414167319255
0.0397904922703
0.0374151994926
0.0340600803325
0.0294464468848
0.0232446368616
0.0151333436263
0.00608695722573
0.00611933189845
0.0151515106415
0.0231762067319
0.0293460080355
0.0339545272828
0.0373222538216
0.0397174745021
0.0413715935945
0.0424735232693
0.0431824477025
0.0436207180336
0.0438816355861
0.0440304003284
0.0441114647268
0.0441529398583
0.0441721537949
0.0441791408937
0.0441795989029
0.0441765968432
0.0441717717003
0.0441658744127
0.0441590487735
0.044150846034
0.0441400238084
0.0441253348585
0.044107190965
0.0440732656497
0.0440046034904
0.0438717281581
0.0436299027194
0.0432125068916
0.0425263967627
0.0414457467546
0.0398120207875
0.037428923392
0.0340663490425
0.0294472054028
0.0232424667874
0.015132916416
0.00608975986183
0.00612156398012
0.0151567134136
0.0231867651087
0.0293627862186
0.0339780576816
0.0373523885431
0.0397535323939
0.0414123851974
0.0425174853577
0.0432279164446
0.0436660697272
0.0439254556535
0.0440715206867
0.044148974738
0.0441861602499
0.0442005891715
0.0442024393767
0.0441975170322
0.0441889745243
0.0441785171278
0.0441669508487
0.0441544751045
0.0441410301037
0.0441332153314
0.0441274157252
0.0441148137499
0.0440838362157
0.0440163651762
0.0438834037059
0.0436403357297
0.0432206626083
0.0425313871627
0.0414470742614
0.0398094166659
0.0374227737845
0.0340577293242
0.0294382983032
0.0232356255016
0.0151319530702
0.00609338659932
0.00612382907345
0.0151609251254
0.0231945872454
0.0293744426619
0.0339936831913
0.0373717104477
0.0397759896717
0.0414370868222
0.0425432564005
0.0432534960579
0.0436902039524
0.0439470287257
0.0440895838314
0.0441627785133
0.0441951267822
0.0442042911102
0.0442005701153
0.0441898628274
0.0441754034027
0.0441589678223
0.0441414649479
0.0441269297645
0.0441227473838
0.0441225945405
0.0441206458438
0.0441098362312
0.0440793573433
0.0440113786367
0.0438772152978
0.0436324235952
0.0432106297
0.0425189659618
0.0414323377651
0.0397927388442
0.0374051311301
0.0340404799653
0.0294237145228
0.0232259514278
0.0151307240229
0.00609773689602
0.00612613531385
0.0151645804889
0.0232009659684
0.0293834247692
0.0340051440152
0.0373852689071
0.0397911086603
0.0414530081468
0.0425589972331
0.0432680078397
0.0437024276064
0.0439560083398
0.0440944977359
0.0441629660732
0.0441900747266
0.0441936189404
0.04418400342
0.0441672233382
0.0441465923496
0.0441240583138
0.0441096117726
0.0441061244026
0.044107555207
0.0441099030154
0.0441086822174
0.0440975827158
0.0440660313707
0.0439965567753
0.0438605967715
0.0436138097821
0.0431899519161
0.0424963753106
0.0414081697151
0.0397677428264
0.0373805433639
0.034017868538
0.0294054031998
0.0232141935329
0.0151290953275
0.00610268601129
0.00612848647414
0.0151678996256
0.0232065599585
0.0293909839845
0.0340143871867
0.0373957342323
0.0398022518387
0.0414641255374
0.0425691959868
0.0432763447768
0.0437079404771
0.0439578291014
0.0440918734372
0.0441552897414
0.0441768773763
0.0441745533459
0.0441588319671
0.0441357995294
0.0441093249467
0.0440942320885
0.0440896754137
0.0440905363518
0.0440934996757
0.0440957637345
0.0440935567763
0.0440809313377
0.0440475483202
0.0439760560506
0.0438379788778
0.0435890641079
0.0431632065102
0.0424679344243
0.0413785454414
0.0397378628865
0.0373517144737
0.0339917860264
0.0293844273997
0.0232006293303
0.0151268619752
0.00610814502648
0.00613086755622
0.0151709426776
0.0232116201782
0.0293976515011
0.0340223039706
0.0374043855341
0.0398110877023
0.0414724595209
0.0425761783182
0.0432810771962
0.0437095129001
0.0439554179531
0.044084764358
0.0441429123144
0.0441587891167
0.0441504430166
0.0441284996866
0.0441000779365
0.0440832578212
0.0440767583889
0.0440756730018
0.0440772909274
0.0440796332444
0.0440804782302
0.0440764180575
0.0440616915503
0.044026111906
0.0439523957524
0.0438121088101
0.0435610793038
0.0431332925574
0.0424364146807
0.0413460461256
0.0397052898569
0.0373204331093
0.0339634860104
0.029361499522
0.0231854861081
0.0151238738516
0.00611405962309
0.00613323547432
0.0151736493137
0.0232162082348
0.0294036607052
0.034029332116
0.0374118738946
0.0398184712056
0.0414790546509
0.0425811481308
0.0432835482168
0.0437085998182
0.0439503241309
0.0440748058785
0.0441275438124
0.0441376048737
0.0441231695187
0.0440958471799
0.0440774236734
0.0440685781343
0.0440650033245
0.0440643124014
0.0440649575179
0.0440655978557
0.0440643525248
0.0440580883533
0.0440410989597
0.0440032702863
0.0439273555776
0.0437849383194
0.0435318784642
0.0431022679075
0.0424038895357
0.0413125994098
0.0396717903726
0.0372881809346
0.0339341193133
0.0293373831912
0.0231690981049
0.0151201758149
0.00612045671695
0.00613560663486
0.0151761812957
0.0232205032186
0.0294092397237
0.0340357392545
0.0374185244586
0.0398247881503
0.041484359602
0.0425846219098
0.0432843375989
0.0437058463412
0.0439432585454
0.0440627696305
0.0441100268602
0.0441142385571
0.0440940190708
0.0440756012332
0.0440651657678
0.0440592023431
0.0440558186189
0.0440539584718
0.044052753055
0.0440512149818
0.0440477162189
0.0440391966438
0.0440200366396
0.0439801373278
0.0439022524041
0.0437579596214
0.0435031263683
0.0430718920328
0.0423721598338
0.0412799821033
0.0396390489285
0.0372564617944
0.0339049393107
0.0293130209224
0.0231520677803
0.0151160008677
0.00612740497556
0.00613803967994
0.0151787017277
0.0232246489806
0.0294144733888
0.0340415675949
0.037424357611
0.0398300546656
0.0414884005178
0.042586644128
0.0432835198787
0.0437013646461
0.0439343769648
0.0440488677472
0.0440906339284
0.0440891128798
0.0440749590709
0.0440650436606
0.0440576441737
0.0440519337434
0.044047396238
0.0440436325081
0.0440402268896
0.0440364277252
0.0440307471789
0.044020191967
0.0439991758631
0.0439575965227
0.0438781831759
0.0437324634721
0.0434762806404
0.0430437697821
0.0423429317648
0.0412499526024
0.0396088032216
0.0372269348831
0.0338774224078
0.0292896218368
0.0231352384222
0.0151117634655
0.00613496521564
0.00614045729195
0.0151809594443
0.0232283733044
0.0294191068149
0.034046543924
0.0374290735237
0.0398339351835
0.0414908072121
0.0425868211154
0.0432806922028
0.0436947561717
0.0439233025389
0.0440327611292
0.0440691143638
0.0440693157359
0.0440646431586
0.0440582939397
0.0440514746256
0.0440447023464
0.0440383133071
0.0440323798947
0.0440267628459
0.0440208687972
0.044013311623
0.0440011505049
0.0439788095326
0.0439361600893
0.0438558735472
0.04370939657
0.0434524969606
0.0430192512174
0.0423177087475
0.0412241376635
0.0395827342605
0.0372012671735
0.0338531338416
0.0292685200859
0.0231195908696
0.0151079710564
0.00614313362498
0.00614282941945
0.0151829508112
0.0232315674918
0.0294228957641
0.0340502672713
0.0374320936106
0.0398356826415
0.0414906865827
0.0425841462061
0.0432747671457
0.0436848912972
0.0439088964001
0.0440133340704
0.0440474082496
0.0440569971661
0.0440566965579
0.0440514458725
0.0440438300065
0.0440353455074
0.0440268501134
0.0440187572493
0.0440111222125
0.0440034855596
0.0439945422691
0.04398139446
0.0439584612246
0.0439155684851
0.0438352953425
0.0436889608631
0.0434322084747
0.0429989981559
0.0422973616318
0.0412036158302
0.0395620971271
0.0371808367776
0.0338334964014
0.0292510449749
0.0231061569842
0.0151051669391
0.00615188192433
0.00614516193896
0.0151846305632
0.0232339580129
0.029425273581
0.0340518170115
0.0374321364698
0.0398336645464
0.0414861027273
0.0425764375935
0.0432633847383
0.0436692935689
0.0438886181981
0.0439883142891
0.0440294293608
0.0440444545521
0.0440458939967
0.044040251083
0.0440311390882
0.0440206466406
0.0440100353019
0.0439999609075
0.0439906488175
0.0439817720913
0.0439720796276
0.043958726042
0.043936120193
0.0438940014747
0.0438148172047
0.0436697320505
0.0434142252344
0.0429820897625
0.0422812847395
0.0411881185852
0.0395469994385
0.0371661249857
0.0338193130366
0.0292382155074
0.0230959463146
0.0151040042855
0.00616123831086
0.00614744391508
0.0151858391447
0.0232349634275
0.0294250718898
0.0340493394237
0.0374266448605
0.0398246679911
0.0414732737132
0.0425594556145
0.043241967991
0.0436431542286
0.043857545414
0.0439591005414
0.0440061797555
0.0440237632294
0.0440253939674
0.0440185652625
0.0440075836856
0.0439950210032
0.0439824168834
0.0439706441335
0.0439600989646
0.0439505589323
0.0439408654308
0.0439282075477
0.0439069586207
0.0438667485864
0.0437898795298
0.0436473367125
0.0433944139972
0.0429647296793
0.0422661325804
0.0411748658138
0.0395353398695
0.0371557896276
0.0338100151978
0.0292301877086
0.0230896788918
0.0151052835663
0.00617129673094
0.00614964167303
0.0151860878853
0.0232331828487
0.0294197384552
0.034039005041
0.037410521833
0.0398024338936
0.0414449530443
0.0425251713522
0.0432019049451
0.0435974611107
0.043808034989
0.0439152434597
0.0439654528483
0.0439838009867
0.0439846090349
0.0439761044414
0.043963093726
0.043948510257
0.0439341056856
0.0439209643494
0.0439096388771
0.0439000503437
0.043891132753
0.0438800825063
0.0438612244157
0.0438240907381
0.043750842927
0.0436122849519
0.0433635388744
0.0429381071105
0.0422437403066
0.0411565846626
0.0395209706418
0.0371449995137
0.0338022043208
0.0292249478247
0.0230865348008
0.0151089495974
0.00618199989873
0.00615170591016
0.0151844348781
0.0232259583724
0.0294044621277
0.0340137200431
0.037374480442
0.0397557248429
0.0413882845946
0.0424594661422
0.0431281513823
0.0435165614585
0.0437280275693
0.0438378996195
0.043889071499
0.0439068693568
0.0439062155639
0.0438957137053
0.0438806010113
0.0438640537597
0.043848048421
0.043833853911
0.043822188076
0.0438131203736
0.043805661322
0.0437970225811
0.0437814880033
0.0437485216111
0.0436801799577
0.0435471469753
0.0433044921561
0.0428856860593
0.0421985015963
0.0411190251165
0.0394914397131
0.0371234971076
0.0337881037437
0.0292172448458
0.0230835705687
0.0151138140989
0.00619322355563
0.0061534877925
0.015178592547
0.0232076341406
0.0293697535112
0.0339601491151
0.0373016363832
0.0396645972014
0.04128085111
0.0423380296576
0.0429950393048
0.0433759915364
0.0435880257378
0.0436978816709
0.0437482885817
0.0437645608809
0.0437618560181
0.0437491352774
0.043731891259
0.0437134608547
0.0436960164323
0.0436810082104
0.0436693366343
0.0436611940003
0.043655669799
0.0436500096938
0.0436385048127
0.0436105864079
0.0435482988984
0.043422393833
0.0431881026476
0.0427790767731
0.0421033227995
0.0410370448431
0.0394242810538
0.037072207231
0.03375260445
0.0291962802827
0.0230742539757
0.0151169992657
0.00620463467702
0.00615471209864
0.0151644504611
0.0231681884701
0.0292991687318
0.033855692362
0.037163952135
0.0394964952684
0.0410865509677
0.042122127166
0.0427620074243
0.043135764294
0.0433440076222
0.0434511939193
0.0434990416437
0.0435128051878
0.0435076066962
0.04349251504
0.0434731191251
0.0434528706027
0.0434340975046
0.0434184196868
0.043406894087
0.0433998342673
0.0433964245379
0.0433939839769
0.0433868520201
0.0433645349703
0.043309280005
0.0431921755099
0.0429689383529
0.0425738228417
0.0419154988922
0.0408706077604
0.0392832154081
0.0369597627332
0.0336703639412
0.0291435626717
0.023047289441
0.0151137680312
0.00621576554853
0.00615466659985
0.015133311932
0.0230885162656
0.0291633902273
0.0336618688199
0.0369152333106
0.039199078629
0.0407483958139
0.0417514397371
0.0423683643706
0.0427299435614
0.0429300707011
0.0430317668626
0.0430754639257
0.043085850389
0.0430777999937
0.0430602294
0.0430386987831
0.043016691131
0.0429966433303
0.0429803060432
0.0429688655331
0.0429627606353
0.0429612917794
0.0429618841229
0.0429590217963
0.042942492409
0.042895017467
0.0427883907957
0.0425793446068
0.0422033938459
0.0415705558468
0.0405585082016
0.0390117985166
0.036736177169
0.0334996512189
0.0290272537241
0.0229818725101
0.0150942799898
0.0062253989688
0.00615206865375
0.0150705147255
0.0229376198716
0.0289163427894
0.0333198280817
0.0364864317187
0.038695544945
0.0401839814189
0.0411397319606
0.041725822152
0.0420673421083
0.042254309616
0.0423473875963
0.0423852510286
0.0423915039027
0.0423803455795
0.0423603153645
0.0423367785974
0.0423131386533
0.0422918669178
0.0422748022207
0.0422632312384
0.0422577066535
0.0422576618262
0.0422606976435
0.0422615999839
0.0422506648705
0.0422114375632
0.0421169502562
0.0419256928038
0.0415753260534
0.0409782351465
0.0400141778112
0.0385290853856
0.0363284679625
0.0331781286721
0.0287984992572
0.0228451090571
0.0150426857008
0.00623174435924
0.00614402167036
0.0149487322551
0.0226627288455
0.0284842281334
0.0327393008508
0.0357749776018
0.0378745543844
0.0392760340157
0.0401673333086
0.0407103704125
0.0410231422767
0.0411916293911
0.0412730513026
0.0413036044659
0.0413051958831
0.0412909399535
0.0412687171169
0.0412434951866
0.041218497192
0.0411961405772
0.0411782874794
0.0411662905635
0.0411608004083
0.0411614071097
0.0411659820402
0.0411697757056
0.0411638532907
0.0411330182018
0.0410522038278
0.0408825662211
0.0405650712697
0.0400159098186
0.0391184881781
0.037721637129
0.0356317892487
0.0326133247103
0.0283815531078
0.0225826343068
0.0149299034155
0.00623070445316
0.00612546961943
0.0147258505375
0.0221865858766
0.0277628486605
0.031796457332
0.0346433906328
0.0365896114283
0.0378724965215
0.0386791438158
0.0391643716619
0.0394390954661
0.0395837137873
0.0396506624429
0.0396727520204
0.0396695238811
0.039652534995
0.0396287050149
0.0396024164612
0.0395765909137
0.0395534968948
0.0395349348919
0.0395222724043
0.0395162550445
0.0395166651049
0.0395217108273
0.0395272705038
0.0395254712892
0.0395028440488
0.0394369378496
0.0392926320323
0.0390156504672
0.0385278595547
0.0377184879649
0.0364416545535
0.0345070519135
0.0316797629061
0.0276707436928
0.0221160768552
0.014712618993
0.00621605415843
0.00608644150351
0.0143324974453
0.021391316284
0.026601241133
0.0303185126578
0.0329052840241
0.0346465925499
0.0357762799722
0.036475515286
0.036888434004
0.0371167752885
0.037233211788
0.0372839220808
0.0372972799029
0.0372897779045
0.0372710135885
0.037246675806
0.0372203976031
0.0371946816909
0.0371715595263
0.0371526876877
0.0371393863786
0.0371324769404
0.0371319624608
0.0371364594966
0.0371426016659
0.0371438191744
0.0371288147528
0.0370784636204
0.0369624800968
0.0367329916853
0.0363197920942
0.0356207757654
0.0344989238963
0.0327710717318
0.0302069963806
0.0265164292361
0.021327936879
0.0143198532452
0.00617529458143
0.00601042021397
0.0136705172028
0.0201183845121
0.024803382525
0.0280872022338
0.0303303836857
0.0318099132018
0.0327505584104
0.0333198393156
0.0336473959951
0.033822729713
0.0339081829256
0.0339420625445
0.0339473100174
0.0339367619884
0.0339177167769
0.0338944241937
0.0338696378515
0.0338453531043
0.0338232768328
0.0338048464052
0.033791257302
0.0337833568471
0.0337813936083
0.0337844558079
0.0337899923764
0.0337928822181
0.0337843465885
0.0337492148943
0.0336630976352
0.0334861987141
0.0331588492307
0.0325912602024
0.0316600945278
0.0301951045266
0.0279774372308
0.0247226416375
0.0200597447958
0.0136525050075
0.00609013498895
0.00586852053415
0.0125925422891
0.0181422809712
0.0221002818947
0.0248115076659
0.0266190235194
0.027779859332
0.0284987114425
0.0289199790428
0.0291540268666
0.0292738892901
0.0293287341865
0.0293475439156
0.0293469723809
0.0293358518648
0.0293190102092
0.0292991838002
0.0292782023234
0.0292574953663
0.0292383887441
0.0292220483605
0.0292094494561
0.0292013557028
0.0291982777647
0.0291998131575
0.0292041921211
0.0292077524357
0.0292043887864
0.0291832747355
0.0291266873291
0.0290044051804
0.0287699078527
0.0283499113408
0.0276408238992
0.0264934348013
0.0247108779514
0.0220274466943
0.0180893324622
0.0125625998047
0.0059295222067
0.00561891118907
0.0108955581588
0.0151600581893
0.0181417786077
0.0201231745525
0.0214011274612
0.0221926684986
0.022664633115
0.0229287934778
0.0230682481367
0.0231349356271
0.0231626035074
0.0231697767037
0.0231665658442
0.0231577977089
0.0231459061793
0.0231321815608
0.0231175734349
0.0231029153579
0.0230891001735
0.0230769728294
0.0230672228554
0.0230603777607
0.0230570868128
0.0230575107942
0.0230605474116
0.0230638717222
0.0230639759329
0.0230543632719
0.0230242607421
0.0229539859992
0.0228124098474
0.0225471590479
0.0220817322166
0.021299250901
0.0200408433489
0.0180812575931
0.015113726137
0.0108456103941
0.00565299097749
0.00522889047858
0.0083978785993
0.010851232176
0.0125427439881
0.0136196519684
0.0142807801002
0.0146687551591
0.0148870788356
0.0150007557453
0.015056140525
0.0150798355171
0.0150887783322
0.0150910672445
0.0150907343801
0.0150891889036
0.0150869390498
0.0150842044042
0.015081202194
0.0150781988832
0.0150756110516
0.0150738931393
0.0150733844544
0.0150742519077
0.015076933942
0.0150819564215
0.0150887438453
0.0150960581586
0.0151025119828
0.015105330913
0.0151000106174
0.0150772834928
0.0150223271572
0.0149072874823
0.0146902058787
0.0143007093091
0.0136398555271
0.0125576679646
0.0108468353085
0.00833767947139
0.00523667570506
0.00488378716501
0.00519543212676
0.00555733746164
0.00579172185429
0.00592731397053
0.00600223568378
0.00604145410938
0.00606150354618
0.00607069300848
0.00607490204568
0.00607698253138
0.00607899784399
0.00608173226685
0.00608545717249
0.00609010666603
0.00609559109152
0.00610169894721
0.0061083536901
0.0061155719657
0.00612338210496
0.00613178719149
0.00614076020843
0.00615025136881
0.00616027230815
0.00617086124203
0.00618187028625
0.00619309630884
0.00620437729942
0.00621533820041
0.00622553697768
0.00623387874417
0.00623876664004
0.00623632140923
0.00622060619667
0.0061792614611
0.00609412299094
0.00593367118795
0.00565672415505
0.00523743907364
0.00490709406073
0.00519500597789
0.00699150574097
0.0083951013049
0.0093021181583
0.00986114387889
0.0101949576248
0.0103876887661
0.0104960267136
0.0105553030759
0.010587768051
0.0106059338483
0.0106170162622
0.0106246763549
0.0106308645844
0.0106364761824
0.0106419488947
0.0106474691233
0.0106531079415
0.0106588701058
0.010664712054
0.0106706562063
0.0106767866942
0.0106829636504
0.0106891286375
0.0106952358054
0.0107011747873
0.0107067198767
0.0107114000512
0.010714181569
0.0107130888178
0.0107040621495
0.0106797783369
0.0106266331431
0.010522133292
0.0103287170438
0.00998932935802
0.00941666163588
0.0084863405816
0.00704905023442
0.00521585663152
0.00698696044743
0.00849722947682
0.0102265787759
0.0114166370224
0.0121718318952
0.0126316499306
0.012901558727
0.0130551390564
0.0131399083683
0.0131861010422
0.0132113628638
0.0132259235561
0.0132351903698
0.0132420491883
0.0132478963136
0.0132534293962
0.0132589580702
0.0132646201083
0.0132704607688
0.0132764704733
0.0132826634622
0.0132890652426
0.0132955920277
0.0133021646315
0.0133086881911
0.0133149769515
0.0133206466101
0.0133249417443
0.0133262852176
0.0133216532891
0.0133051520384
0.0132662270873
0.0131860976154
0.01303404879
0.0127606465607
0.0122919791561
0.0115199198375
0.010302025421
0.00852784710256
0.00700391114473
0.00838786337075
0.0102230766523
0.0124343323938
0.0140228288375
0.015073534429
0.0157397177018
0.0161468675013
0.0163876258627
0.0165252781146
0.016602134573
0.0166444073833
0.0166680052322
0.016681870597
0.0166909639877
0.0166978415891
0.0167038226529
0.0167095337251
0.0167152752583
0.0167211694834
0.016727252634
0.0167335538671
0.0167400798092
0.0167467480296
0.0167534473387
0.0167599993723
0.0167660522015
0.0167708877896
0.0167731023783
0.0167699146333
0.0167561569976
0.0167223067708
0.0166520294193
0.0165178812909
0.0162770323164
0.0158641835396
0.0151863327876
0.0141149170767
0.0124934971754
0.0102309957896
0.0084029390774
0.00929413271138
0.0114123470879
0.0140222857085
0.0159511673866
0.0172668095195
0.0181277914343
0.0186713998655
0.0190033818205
0.0191992804011
0.0193116892867
0.0193747781269
0.0194101245983
0.0194304498728
0.0194430543919
0.0194518792984
0.019459012651
0.0194654917842
0.0194718274716
0.019478248656
0.0194848452172
0.0194916616647
0.0194986916129
0.0195058401623
0.0195129502148
0.0195197306466
0.0195256087582
0.019529440908
0.0195290287768
0.0195201817576
0.0194953437959
0.0194411871259
0.0193356693193
0.0191433987697
0.0188112579128
0.0182616734984
0.0173884176401
0.016050557156
0.0140857725452
0.0114181626335
0.00931148428455
0.00985342919976
0.0121680746523
0.0150739822895
0.0172680234001
0.0187998442032
0.0198270237125
0.0204922468195
0.0209091033258
0.0211615717475
0.0213100386575
0.0213952109395
0.021443647337
0.021471587469
0.0214886367681
0.0215001626443
0.0215090760271
0.0215168746097
0.0215243103078
0.0215317341081
0.0215392966246
0.0215470580819
0.0215549994731
0.0215630049906
0.0215708584778
0.0215781377888
0.0215840180851
0.0215868854226
0.0215836971698
0.0215688249679
0.0215323836227
0.0214575213972
0.0213171996023
0.0210695002633
0.020653453185
0.0199829355923
0.0189435813444
0.0173883468656
0.0151549652159
0.0121839293597
0.00988041005624
0.0101879619106
0.0126289319076
0.0157417879745
0.018131015086
0.0198292194958
0.0209895413669
0.0217559208216
0.0222459830721
0.0225490138401
0.0227308728716
0.0228372463286
0.0228987237771
0.0229345563661
0.0229564194568
0.0229710064356
0.0229820302721
0.0229914502454
0.0230002659334
0.0230089563573
0.0230177346116
0.0230266777452
0.0230357574145