/*--------------------------------*- C++ -*----------------------------------*\
| =========                 |                                                 |
| \\      /  F ield         | foam-extend: Open Source CFD                    |
|  \\    /   O peration     | Version:     4.1                                |
|   \\  /    A nd           | Web:         http://www.foam-extend.org         |
|    \\/     M anipulation  |                                                 |
\*---------------------------------------------------------------------------*/
FoamFile
{
    version     2.0;
    format      ascii;
    class       volScalarField;
    location    "1";
    object      k;
}
// * * * * * * * * * * * * * * * * * * * * * * * * * * * * * * * * * * * * * //

dimensions      [0 2 -2 0 0 0 0];

internalField   nonuniform List<scalar> 
96000
(
0.00280299874553
0.00292996664334
0.00307039046393
0.0031590887993
0.00320941189993
0.00323692501464
0.0032515747114
0.00325933587762
0.00326342924528
0.00326572601822
0.00326713130587
0.00326815372666
0.00326901311229
0.00326983006397
0.00327064833748
0.00327149055654
0.00327236316315
0.00327326733474
0.0032741990045
0.00327514135369
0.00327610346509
0.00327710680603
0.0032781141865
0.00327912089284
0.00328012743254
0.00328112683681
0.00328210591916
0.0032830415497
0.00328387384366
0.0032844956178
0.00328464071306
0.00328382330722
0.00328097952451
0.00327424491796
0.00325998002644
0.0032321088701
0.00317992372552
0.0030873762278
0.00294015539245
0.00280575996899
0.00292946649461
0.00308061769562
0.00366192722057
0.00403404093411
0.00426180829636
0.00439931072393
0.00448007753247
0.00452637801745
0.00455192772952
0.00456582630594
0.00457321793618
0.00457727481835
0.0045796045421
0.00458113081575
0.00458227475251
0.00458326871458
0.00458420848666
0.00458514428902
0.00458609397131
0.00458704803953
0.0045880379525
0.00458908256361
0.00459014235283
0.00459120881537
0.0045922635359
0.00459326031968
0.00459408415257
0.00459452434234
0.00459409383746
0.00459191296422
0.00458617373037
0.00457381535656
0.00454919532903
0.0045035291977
0.00442221971824
0.00428381386667
0.00405402022903
0.00367936014698
0.00309032651672
0.00292729185484
0.0030692695018
0.00366124761528
0.00456727697444
0.00514758890338
0.00551536877456
0.00574702373622
0.00588965908271
0.00597540969272
0.0060251126697
0.00605327105814
0.00606876738898
0.00607731824648
0.00608210435331
0.0060849987131
0.0060869485438
0.00608847404861
0.00608981568082
0.00609109827296
0.0060923719983
0.00609365006269
0.00609496374962
0.00609632612161
0.0060976986501
0.00609905283132
0.00610033112287
0.00610141333817
0.00610203318005
0.00610168739185
0.00609934075744
0.00609316028564
0.00607970875357
0.00605339235267
0.00600472815568
0.00591961942045
0.00577611223759
0.00554301891222
0.00517193858827
0.00458653517367
0.00366752275982
0.00306339087228
0.00315775340979
0.0040337004074
0.00514804709906
0.00587145512324
0.00634197372664
0.00664703569755
0.0068409890429
0.00696146610466
0.00703378048379
0.00707606524045
0.00710004031886
0.00711350149372
0.00712106164181
0.00712550831702
0.00712834644748
0.0071304127364
0.00713212077631
0.0071336853957
0.00713520254896
0.00713671207119
0.0071382485409
0.00713982071375
0.00714138733124
0.0071428987686
0.00714424900877
0.00714522533636
0.00714538477529
0.00714390053879
0.00713917679912
0.00712845543532
0.0071068692349
0.00706674194096
0.00699576402445
0.00687621415134
0.00668163618972
0.00637531021984
0.00590130170892
0.0051719561918
0.00404150534628
0.00315034921701
0.00320805378468
0.00426191662896
0.00551645260321
0.00634264636987
0.00689095466425
0.00725424381075
0.00749077410105
0.00764135317665
0.00773414158371
0.00778976463781
0.0078220743747
0.00784053838049
0.00785100612064
0.00785710448851
0.007860880609
0.00786349251924
0.00786554072094
0.00786734009198
0.00786903907737
0.00787070681626
0.00787238343128
0.00787407184814
0.00787572719709
0.00787727527534
0.00787855674398
0.00787925823732
0.0078787522028
0.00787588727502
0.00786853300507
0.00785309090163
0.00782347546314
0.00777034073956
0.00767927524306
0.00753004040571
0.0072933127501
0.00692909874084
0.00637734664736
0.0055446484444
0.00427191060471
0.00320042352564
0.00323561305226
0.0043998437106
0.00574874454307
0.00664843869346
0.00725502297965
0.00766365797955
0.00793455136886
0.00811026146256
0.00822071607563
0.00828821888111
0.00832817918041
0.0083513574526
0.00836462222607
0.00837232631673
0.00837700380074
0.00838011825596
0.00838245270252
0.00838442317146
0.00838623336198
0.00838798200621
0.00838971663339
0.00839143831928
0.00839309589927
0.00839458931174
0.00839570545413
0.00839603102567
0.0083947603097
0.00839043981073
0.00838045994167
0.00836050092
0.00832347972339
0.00825875394981
0.00815037793974
0.00797639283969
0.00770568535969
0.00729638887942
0.00668638635997
0.00577968230211
0.00441113041386
0.00322808124767
0.00325031418281
0.0044809446627
0.00589191043423
0.0068430484827
0.00749228486115
0.00793531780672
0.00823310361608
0.00842904594027
0.00855410506377
0.00863168016164
0.00867827917816
0.00870563354247
0.00872141312648
0.00873056729548
0.00873604821494
0.00873958965461
0.00874213939479
0.0087442097136
0.00874605773575
0.00874781037037
0.00874952453253
0.00875120014446
0.00875277928389
0.00875413703257
0.00875501028558
0.00875489277318
0.0087528183463
0.00874706859926
0.00873462616927
0.00871057945519
0.00866705953573
0.00859244791939
0.00846971009552
0.00827574905506
0.00797839652574
0.00753482396288
0.00688212407407
0.00592351763024
0.00449198030688
0.00324255108284
0.00325812111561
0.00452750411167
0.00597809720299
0.00696409759915
0.00764352132419
0.00811173688152
0.00842977604328
0.00864133417241
0.00877791557421
0.00886359811818
0.00891563333082
0.00894645264064
0.00896433102273
0.00897468595409
0.00898080819289
0.00898465626553
0.00898732052049
0.00898939759407
0.00899119264793
0.00899285836041
0.00899446139387
0.00899600239992
0.00899741656641
0.00899855753383
0.00899911858002
0.00899851357548
0.00899564055188
0.00898856204509
0.00897393177711
0.008946375758
0.00889743159291
0.00881477532018
0.00868063010611
0.00847118258835
0.00815370696505
0.00768498196144
0.00700205160301
0.00600827596005
0.00453679571029
0.00324990098848
0.00326223535255
0.00455319870734
0.00602809280286
0.00703682478958
0.00773680539627
0.00822274654331
0.00855542304189
0.00877851771266
0.00892377083226
0.00901564868943
0.00907188242778
0.00910538890017
0.00912488083761
0.00913612734162
0.00914268033458
0.00914667723261
0.00914932417018
0.00915128847872
0.00915291630537
0.00915438260477
0.00915576364868
0.00915706196665
0.00915820753108
0.00915903646769
0.0091592067982
0.00915806818845
0.00915440994445
0.00914612280703
0.00912960851382
0.00909914833892
0.00904585057643
0.00895690290766
0.00881404820877
0.00859305528909
0.0082609615666
0.00777449183601
0.00707102963798
0.00605467821807
0.00455951870556
0.00325324496275
0.00326453205329
0.00456714830877
0.0060564178975
0.00707936923954
0.00779275923781
0.00829063406927
0.00863341633917
0.00886463703058
0.00901609142673
0.00911244538222
0.00917172263505
0.00920716092755
0.00922777582413
0.00923958929539
0.00924634624977
0.00925031986625
0.00925280607273
0.00925452784195
0.00925586500143
0.00925701203504
0.0092580535901
0.00925899487824
0.00925976302767
0.00926018168475
0.00925988201407
0.00925816513536
0.00925373931473
0.00924436842042
0.00922627107161
0.00919348458276
0.00913682254962
0.00904315425385
0.00889393380189
0.00866476593967
0.00832284694467
0.00782495349817
0.0071088184433
0.00607882368252
0.0045703137058
0.00325473505296
0.00326591427053
0.00457449349467
0.00607194456921
0.00710344064055
0.00782521811251
0.00833078380738
0.00868023255955
0.00891690564996
0.00907256567751
0.00917196502289
0.00923329413886
0.00926999352541
0.00929128015097
0.00930335109431
0.00931008867907
0.00931386485762
0.00931604240015
0.00931738786238
0.00931830720165
0.00931901108756
0.00931959230897
0.00932005952123
0.00932033930437
0.00932024706058
0.00931939576212
0.00931705252725
0.00931186842999
0.00930151929577
0.00928209876776
0.00924748264054
0.00918837196146
0.00909170618888
0.00893868861606
0.00870468544056
0.00835675288634
0.00785175874946
0.00712795097661
0.00609014472222
0.00457466475455
0.00325537695044
0.00326689517072
0.00457842088608
0.00608041150474
0.00711685258139
0.00784366183901
0.00835396763787
0.00870760852979
0.00894775558154
0.00910610541115
0.00920743576402
0.00927002378566
0.00930743340737
0.00932901101045
0.00934107081197
0.00934758927861
0.00935100917648
0.00935274229301
0.00935358705314
0.00935397032604
0.00935411609863
0.00935412526072
0.00935401055013
0.00935369965756
0.00935300432499
0.00935152666651
0.00934851187648
0.00934257544409
0.0093313392679
0.00931118199627
0.00927601951442
0.00921613076739
0.00911795097315
0.00896266411658
0.00872559909304
0.00837394634956
0.00786475364009
0.00713663929501
0.00609471891966
0.00457607191102
0.00325588474621
0.00326769338573
0.00458054195252
0.00608500370002
0.00712422708439
0.00785395304574
0.00836706349453
0.00872322224437
0.00896546715552
0.00912542581467
0.00922787247868
0.00929112529261
0.00932882158156
0.00935038801967
0.00936221653836
0.00936834826547
0.0093712749075
0.00937244374616
0.00937267753237
0.0093724197297
0.00937190617226
0.00937124482152
0.00937045376374
0.00936946371157
0.00936808594821
0.00936591931006
0.00936220310702
0.00935617469375
0.00934544055428
0.00932567085277
0.00929040243241
0.00922999483331
0.0091308247674
0.00897411584439
0.00873520676054
0.00838140877799
0.00786988312175
0.00713957948878
0.00609580768713
0.00457621990416
0.00325654966241
0.00326843111921
0.00458178654328
0.00608760691707
0.00712836945123
0.0078597366317
0.00837444113153
0.00873203984945
0.00897547348407
0.00913630935702
0.00923930833403
0.00930280512964
0.00934047951979
0.00936180889294
0.00937323714532
0.00937884849907
0.00938117058947
0.00938167632267
0.00938120762976
0.00938022192833
0.0093789656479
0.00937755401524
0.00937601084704
0.00937427228744
0.00937216036766
0.00936988826458
0.00936709539642
0.0093619057487
0.00935160891461
0.00933197256483
0.00929655509143
0.00923572990255
0.00913589082326
0.00897827614809
0.00873826725766
0.00838330891106
0.00787064923141
0.00713946539785
0.00609518416736
0.00457593331583
0.00325749990914
0.00326915247036
0.00458257703456
0.0060891718256
0.00713078852814
0.00786306595739
0.00837864673232
0.00873702586142
0.00898107729087
0.00914232003402
0.00924550012831
0.00930895619889
0.009346394507
0.00936732498234
0.00937822648893
0.00938321527533
0.00938484503293
0.00938460921025
0.00938336540516
0.00938158322517
0.00937951926353
0.00937729675592
0.00937494994057
0.00937269337172
0.00937148632816
0.00937042319505
0.00936828757601
0.00936342250564
0.00935322090908
0.00933351103902
0.00929786622988
0.00923667384258
0.0091363454524
0.00897816800697
0.00873755215845
0.00838202897541
0.00786894194665
0.00713764329136
0.00609363293777
0.00457546663512
0.00325872961509
0.00326988054571
0.00458314609316
0.00609022143856
0.00713232677086
0.00786510872315
0.0083811536347
0.00873992406428
0.00898424812837
0.00914560665301
0.00924873206946
0.00931196218724
0.0093490203824
0.00936943854772
0.00937972258632
0.00938401268969
0.00938488389657
0.00938384702002
0.00938177317894
0.00937914382395
0.00937622630391
0.00937316391065
0.00937099945968
0.0093702445475
0.00936995867146
0.009369339118
0.00936737961826
0.00936252310601
0.00935220070695
0.00933227929945
0.00929635357889
0.00923482585033
0.00913412355114
0.00897557636035
0.00873463370237
0.00837890803658
0.00786580146227
0.0071348208668
0.00609152320256
0.00457490301597
0.00326020753517
0.00327061913983
0.00458358798509
0.00609099517764
0.00713339976956
0.00786646750044
0.00838274810223
0.00874168819527
0.00898608336607
0.00914738332328
0.0092503091924
0.009313195546
0.00934977822892
0.00936960663199
0.00937920854763
0.00938274472889
0.00938280905351
0.00938092769563
0.00937798550545
0.00937447614379
0.0093707632826
0.00936868982807
0.00936799192574
0.00936790580577
0.00936788673546
0.00936730514995
0.00936525337831
0.00936020582005
0.00934963894315
0.00932943472095
0.00929320039635
0.0092313536661
0.00913034905086
0.00897153903837
0.00873042614524
0.00837469013738
0.00786178588589
0.00713135664551
0.00608901714042
0.00457423363538
0.0032618904542
0.00327137021282
0.00458395142891
0.00609161646996
0.0071342223052
0.00786745885274
0.00838384952615
0.00874283452845
0.00898718463843
0.00914832285427
0.00925096087358
0.00931342888575
0.00934947396542
0.00936866043475
0.00937753588952
0.00938028031919
0.00937950498255
0.0093767517078
0.00937291976542
0.00936877844931
0.00936657151671
0.00936569494549
0.0093655023748
0.00936555612662
0.00936546961379
0.00936470633687
0.00936240605938
0.00935707287283
0.00934619853948
0.00932567537926
0.00928912097997
0.00922696956161
0.00912569705338
0.00896668132599
0.00872547788381
0.00836981945359
0.0078572207358
0.00712745028313
0.00608618485644
0.00457343042434
0.00326374813226
0.00327212892454
0.00458425136571
0.00609213407017
0.0071348877019
0.00786823010475
0.00838466158814
0.00874362224484
0.00898786095608
0.00914877735098
0.00925107398281
0.00931307758715
0.00934854551949
0.00936705625845
0.00937517693689
0.00937710553096
0.00937547192347
0.00937183561733
0.00936749102409
0.00936503367778
0.00936386708089
0.00936338082932
0.00936322765476
0.00936314407837
0.00936282015776
0.00936176685494
0.00935914802651
0.00935348699808
0.00934228386658
0.00932143538394
0.00928456822703
0.00922212672395
0.00912060286803
0.00896141135536
0.00872014285135
0.00836459226831
0.00785232475518
0.00712323788902
0.0060830815437
0.00457247304164
0.00326576250127
0.00327287951426
0.00458447575565
0.00609256109777
0.00713543751622
0.00786885454584
0.00838528921943
0.00874418597661
0.00898827425714
0.00914893177243
0.00925085359321
0.00931236313835
0.00934722837024
0.0093650424598
0.00937239149094
0.00937349289366
0.00937099659916
0.00936684362654
0.00936419316681
0.0093627011757
0.00936185384361
0.00936135933109
0.00936102341803
0.00936066653958
0.00936002345968
0.0093586403522
0.00935568837495
0.00934969951485
0.00933817776218
0.00931702099311
0.00927985860529
0.009217146429
0.00911538930715
0.00895603242927
0.00871470190486
0.00835925015801
0.0078472928102
0.00711885785295
0.00607977795986
0.00457137832104
0.00326794415571
0.00327363083179
0.00458466659151
0.00609293769637
0.007135917683
0.00786938196788
0.00838578952718
0.00874459091648
0.00898849841769
0.00914886948939
0.00925039208476
0.00931138718758
0.00934563346731
0.00936273855377
0.00936930867511
0.00936958154587
0.00936645116419
0.00936388706496
0.00936220323797
0.00936102457124
0.0093601432784
0.0093594413423
0.00935881388828
0.00935812797151
0.00935715110475
0.00935543923528
0.00935217421608
0.00934588925301
0.00933408722071
0.00931266375652
0.00927524738253
0.00921229749416
0.00911033169565
0.00895081761049
0.00870941684539
0.00835403178674
0.00784233061458
0.00711447341102
0.00607638799125
0.00457019949373
0.00327031860178
0.00327440382275
0.00458485630261
0.0060932888687
0.0071363429588
0.00786982101113
0.00838616826994
0.00874484241442
0.00898854036121
0.00914860012156
0.00924970330936
0.00931016881815
0.00934378597423
0.00936017748743
0.00936597008301
0.00936549444045
0.00936368515944
0.00936214965709
0.00936080064497
0.00935959697012
0.00935851099401
0.00935751190595
0.00935655409913
0.00935553583245
0.00935424311364
0.00935224034905
0.00934871321518
0.00934219349477
0.00933017947674
0.00930855830429
0.0092709530005
0.00920781966077
0.00910568522701
0.00894603115276
0.00870455181415
0.00834919404177
0.00783767404811
0.00711028747475
0.00607306564836
0.0045690253365
0.00327290893664
0.00327516948891
0.00458499042135
0.00609356456337
0.00713666992674
0.0078701279579
0.00838637960621
0.00874489067337
0.00898834618461
0.00914806694408
0.00924872958341
0.00930865124672
0.00934163237818
0.00935731128215
0.0093623453146
0.00936266667336
0.00936200435782
0.00936087328959
0.0093595417716
0.00935814661402
0.00935677130972
0.00935544719217
0.00935416539224
0.00935284539831
0.00935128664279
0.00934906004821
0.0093453519477
0.00933868958763
0.00932656203727
0.00930484330542
0.00926714390339
0.00920390937668
0.00910166941334
0.00894191221305
0.00870035727286
0.0083449906334
0.0078335692053
0.00710652077537
0.00606998725052
0.00456796236748
0.00327571594191
0.00327591897801
0.00458507402137
0.00609375057209
0.007136862423
0.00787024274156
0.00838633741958
0.00874462547281
0.00898778501187
0.00914712305867
0.00924731261016
0.00930667009301
0.00933900675733
0.00935397962372
0.00935915433719
0.00936072608273
0.00936057445639
0.0093595291128
0.00935804086651
0.00935637505455
0.00935468368613
0.00935304348216
0.00935147185732
0.0093499062795
0.00934815687685
0.00934579986547
0.00934202019641
0.00933533767868
0.0093232272326
0.00930154356969
0.00926387801024
0.00920065753474
0.00909840610048
0.00893861456632
0.00869701593294
0.0083416274509
0.00783023655773
0.00710339059094
0.00606733646365
0.00456712345955
0.00327873175148
0.0032766551376
0.00458509917794
0.00609379891189
0.00713682757464
0.00787002079183
0.00838584599555
0.0087438020524
0.00898656992798
0.00914544737506
0.0092451063561
0.00930386278666
0.00933553789853
0.00935009015594
0.00935643267881
0.00935865107697
0.00935866990695
0.0093575207367
0.00935578984609
0.00935382100292
0.00935181928829
0.00934989447237
0.00934808710551
0.00934635243596
0.00934450792033
0.00934213628166
0.00933842023406
0.00933186643977
0.00931993018065
0.00929844337738
0.00926097288391
0.00919792031985
0.00909579693805
0.0089360891957
0.00869453511872
0.00833917009915
0.00782779566572
0.00710105978464
0.00606528999548
0.00456664161881
0.00328196788807
0.00327737466271
0.0045850339498
0.00609360572881
0.00713637170768
0.00786916903431
0.0083845133557
0.00874193764591
0.0089841399214
0.00914241591062
0.0092414401172
0.00929952614177
0.0093305095896
0.00934578144418
0.00935283346714
0.00935532736406
0.00935531766842
0.00935396518424
0.00935194844829
0.00934967440837
0.00934738556423
0.00934522143014
0.00934324588439
0.00934142857269
0.00933959930584
0.00933734503342
0.0093338426576
0.00932758250945
0.0093159984926
0.00929489633137
0.00925781561294
0.00919513198061
0.00909333958305
0.00893391350843
0.00869258895361
0.00833740306648
0.0078261476739
0.00709954614384
0.00606397008135
0.00456667775589
0.00328545844159
0.00327806593151
0.00458477803377
0.00609291975728
0.00713507153123
0.00786708260441
0.00838155952301
0.00873809400301
0.00897942300987
0.00913685050385
0.00923505608899
0.0092923489984
0.00932325062482
0.00933922362533
0.0093466218354
0.00934915925821
0.00934899185256
0.00934737604631
0.00934505734335
0.00934248993982
0.00933994566636
0.00933759299692
0.00933551740573
0.00933370818257
0.00933200768373
0.00933000340507
0.00932686455453
0.0093210669923
0.00931002393768
0.00928951441725
0.00925305257256
0.00919099673164
0.00908982623629
0.00893100153612
0.00869024576637
0.0083355773013
0.00782474706303
0.00709850831553
0.00606322390057
0.00456721743532
0.00328918253206
0.00327871154314
0.0045841369453
0.00609126410168
0.00713213035861
0.00786264360154
0.00837556715817
0.00873059143339
0.00897052298494
0.0091266857228
0.00922376422979
0.00928019478256
0.00931147668296
0.00932772654364
0.00933518710472
0.00933759720879
0.00933719013669
0.00933527220551
0.00933264574633
0.00932979703918
0.00932702881251
0.00932453511687
0.00932242438857
0.00932070640361
0.00931923396436
0.00931759602314
0.00931495555495
0.00930977796793
0.00929946047957
0.00927976356972
0.00924419236173
0.00918309903006
0.00908296470718
0.00892524162526
0.0086856342981
0.00833211775142
0.00782235961337
0.00709707005407
0.00606251948236
0.00456801445047
0.00329309611559
0.00327925747092
0.00458263892229
0.00608762728375
0.00712598205215
0.00785375746815
0.00836396756617
0.0087164579902
0.00895414317002
0.00910837551685
0.00920383970461
0.00925966235408
0.00929092732342
0.0093070981911
0.00931439168962
0.00931654540192
0.0093158222329
0.00931357463194
0.00931063878784
0.00930752204214
0.00930455435278
0.00930195505353
0.00929985794547
0.0092982899065
0.00929711450971
0.00929592525697
0.0092938854169
0.00928945455105
0.0092800262846
0.00926136812697
0.00922700474279
0.00916730974672
0.00906879405208
0.00891292644839
0.00867539637062
0.00832411205367
0.00781660267612
0.00709344098651
0.00606068304148
0.00456847275153
0.00329707876205
0.00327960369691
0.00457943690942
0.00608022135272
0.00711391885555
0.00783688152956
0.00834250201079
0.00869084800621
0.00892497900674
0.00907627364903
0.0091696117367
0.00922458664355
0.00925525882728
0.00927099380092
0.00927788071689
0.00927964658527
0.009278547759
0.00927595027201
0.00927270255721
0.00926932684492
0.00926617504817
0.00926349019995
0.00926142809053
0.00926003267608
0.00925918083715
0.00925847604488
0.00925708739838
0.00925348307734
0.00924508228436
0.00922769527327
0.00919490824774
0.00913717121487
0.00904108068091
0.00888816372027
0.00865412150488
0.00830678475721
0.00780349297981
0.00708456685347
0.006055691956
0.00456761273303
0.00330096103226
0.00327949116104
0.00457274596906
0.00606564756862
0.00709112143524
0.00780598773313
0.00830415226984
0.00864596333139
0.00887464343596
0.00902156936
0.00911218055833
0.00916544057821
0.00919493849748
0.00920985744857
0.00921612084839
0.00921737957822
0.00921585431059
0.0092128901856
0.00920933042215
0.00920570114135
0.00920236999775
0.00919959849225
0.00919756091335
0.00919631927194
0.00919576698566
0.00919552186795
0.00919477194422
0.00919202211691
0.00918475332441
0.00916886639097
0.00913807776225
0.00908299835126
0.00899039718245
0.00884193547361
0.00861338908901
0.00827252994459
0.00777648206552
0.00706520377093
0.00604383681561
0.00456341221223
0.0033043032981
0.00327845418568
0.00455955899295
0.00603838796237
0.00704999759653
0.00775181935121
0.00823836870253
0.00857028104159
0.00879091072123
0.00893178957598
0.00901836618265
0.00906886795398
0.00909651659436
0.00911019733081
0.00911560656874
0.00911625099425
0.00911425958496
0.00911092592902
0.00910706544369
0.00910319360533
0.00909968366512
0.00909681007905
0.00909476220813
0.00909361892123
0.00909329264032
0.00909342531092
0.0090932453767
0.00909132490592
0.00908525254413
0.0090710891284
0.00904277720306
0.00899120012712
0.00890342707402
0.00876138418962
0.00854104085002
0.0082101829095
0.00772575136629
0.00702728936803
0.00601925164102
0.00455261811925
0.00330646022245
0.00327544415839
0.0045342736268
0.00598901561685
0.00697830437673
0.007660039949
0.00812928781748
0.00844685501333
0.00865609898735
0.0087888204981
0.00886964402063
0.00891623617196
0.0089413206785
0.00895334856227
0.00895769651407
0.00895764653258
0.00895518116261
0.00895150446032
0.00894737660944
0.00894328891541
0.00893960830004
0.00893661393768
0.00893450622002
0.00893337906196
0.00893316758782
0.00893355120089
0.00893382110543
0.00893265116884
0.00892779514726
0.00891556042872
0.00889023210545
0.00884311083615
0.00876174457209
0.00862851741947
0.0084197839864
0.00810350488814
0.00763659581913
0.00695824312464
0.00597221399135
0.00452926987368
0.00330596072476
0.00326863343425
0.00448818908299
0.00590353357421
0.00685841973566
0.00751050773216
0.00795504473657
0.00825267772801
0.00844671631665
0.00856839920621
0.00864152825905
0.00868296795875
0.00870475540882
0.00871473830664
0.00871785597005
0.00871707684596
0.00871417358088
0.0087102192859
0.00870589315943
0.00870164609345
0.00869782617497
0.00869470624991
0.008692491287
0.0086912908875
0.00869106852036
0.00869155043702
0.00869211310054
0.0086915719835
0.00868790867577
0.00867777069532
0.00865592220353
0.00861426452181
0.00854105705896
0.00841940673208
0.0082263497338
0.00793032736681
0.00748856838736
0.00684016600425
0.00588850458107
0.00448441230398
0.00330056966384
0.00325441751311
0.00440676105307
0.00576004682791
0.00666395707248
0.00727397701489
0.0076846104638
0.00795567453455
0.0081300771764
0.00823763759548
0.00830111877112
0.00833625553369
0.00835413309612
0.00836180553193
0.00836363539507
0.00836218396923
0.00835895730248
0.0083548589836
0.00835046423534
0.00834616723718
0.0083422855189
0.00833907498566
0.00833673743756
0.00833539655426
0.00833504931684
0.00833547966629
0.00833616755811
0.00833610357181
0.00833355845298
0.00832561543353
0.00830766512892
0.00827242133555
0.00820913925989
0.00810199636083
0.00792915413319
0.00766002688242
0.00725272780032
0.00664684686347
0.00574626834318
0.0044031614382
0.00328580194181
0.00322679343882
0.0042686101416
0.00552743457715
0.00635825020163
0.0069104917448
0.0072761459494
0.00751328437307
0.00766288226694
0.00775316934764
0.00780512272525
0.0078329593183
0.00784647486378
0.00785170929995
0.007852307336
0.00785033291805
0.00784697318353
0.007842929509
0.00783865317037
0.0078344688248
0.00783065141603
0.00782742993538
0.00782499312417
0.00782347299723
0.00782290556159
0.00782314333966
0.007823779844
0.00782400279439
0.00782242409708
0.00781665389402
0.00780285950357
0.00777479387818
0.00772305354848
0.00763335090518
0.00748558429962
0.00725087074221
0.00688912216444
0.00634155303706
0.00551434142359
0.00426388470642
0.00325503338143
0.00317512800229
0.00403956957999
0.00515742040014
0.00588551694276
0.00636017886942
0.00666777672951
0.00686262459337
0.00698244340409
0.00705256481265
0.00709155536374
0.00711153965283
0.00712061958622
0.00712359662018
0.00712325773487
0.00712110277934
0.00711796374542
0.00711432105752
0.00711049189803
0.00710672091098
0.00710323219901
0.00710022064306
0.00709784827911
0.00709624056269
0.00709547887273
0.00709549355008
0.00709598942212
0.00709635688512
0.00709558091859
0.00709186824405
0.0070822920741
0.00706187242911
0.00702292735261
0.00695327583364
0.00683536522522
0.00664307231978
0.00633956706417
0.00586964499205
0.0051450128589
0.00403217104585
0.00319684981718
0.00308350075021
0.00366619722749
0.00457358659957
0.00515797864312
0.00552948398918
0.00576345761605
0.00590675791916
0.005991797336
0.00603942206321
0.00606461347238
0.00607666603748
0.00608159286518
0.00608272485445
0.00608190339544
0.00608002743586
0.00607756155433
0.00607475993571
0.00607180389024
0.00606884947559
0.00606606019498
0.00606358886864
0.00606155994234
0.00606006811821
0.00605922690611
0.00605906198454
0.0060593762742
0.00605975200345
0.00605955678553
0.00605762382247
0.00605202449025
0.00603924776353
0.00601373848127
0.00596612194332
0.00588251127836
0.00574116931215
0.00551089792269
0.00514348194567
0.00456184334758
0.00365392747716
0.0030957235486
0.00293781819583
0.00307975170873
0.00365740451933
0.00403074474856
0.00426034598797
0.00439901135334
0.00447982811857
0.00452525409069
0.00454899501755
0.00456060767051
0.00456557250577
0.00456737050898
0.00456769368706
0.00456740087861
0.00456680990785
0.00456604747322
0.00456517486862
0.00456424473518
0.00456331790992
0.00456248338942
0.00456183641854
0.00456144845924
0.00456135571626
0.00456164773304
0.00456242952143
0.00456358475346
0.00456485908887
0.00456596415998
0.00456632517401
0.00456501150025
0.00456011800151
0.00454860078127
0.00452474567509
0.00447987383975
0.00439922623584
0.00426122612941
0.00403108544667
0.00365418059813
0.00306402956615
0.00294062747905
0.00280555395167
0.00292528217371
0.00306127614704
0.00314801272839
0.0031978856715
0.00322541046435
0.00323985721697
0.00324726928776
0.00325068847304
0.00325225398313
0.00325300987728
0.00325370721439
0.00325463621856
0.00325590159539
0.00325748437827
0.00325935569555
0.00326144455776
0.00326372429534
0.00326620170756
0.00326888811167
0.00327178589223
0.00327488660531
0.00327817345305
0.00328165123522
0.00328533325722
0.00328916706911
0.00329308025774
0.00329701474962
0.00330083510142
0.00330438202141
0.00330726044689
0.00330889571259
0.00330789513047
0.0033021282884
0.00328715954579
0.0032564145045
0.00319831542878
0.00309708304141
0.00294093370492
0.00281442722807
0.00292467458925
0.00357005581064
0.00403673731012
0.00432518155754
0.00449886025736
0.004601383302
0.00466029484524
0.00469336051094
0.00471143689784
0.00472130334294
0.00472677063166
0.00473004195781
0.00473224122817
0.00473397050351
0.00473550837412
0.00473699238824
0.00473848182372
0.00474000032465
0.0047415508825
0.0047431212112
0.0047447206233
0.00474637480161
0.00474804173366
0.0047497058635
0.00475135394791
0.0047529532335
0.00475443515331
0.00475565658218
0.00475630308882
0.00475577506198
0.00475284468405
0.00474530351569
0.00472905431923
0.00469730478588
0.00463860689916
0.00453516787955
0.004358543933
0.00406455690064
0.00358906079665
0.00293258971326
0.00356847936467
0.00660129828172
0.00815750892311
0.00910410844003
0.00969356897548
0.0100584749124
0.0102795409761
0.0104099229773
0.0104842070684
0.0105253086583
0.0105473405938
0.010558982715
0.0105651097462
0.0105684703897
0.0105704756463
0.0105718680789
0.0105730018775
0.0105740527027
0.0105750985023
0.010576161997
0.0105772852233
0.0105785126668
0.0105797864594
0.0105810634434
0.0105822685958
0.0105832320466
0.0105835801715
0.0105825725333
0.0105787036072
0.0105691956558
0.0105489052556
0.0105091037959
0.010435115697
0.0103041013102
0.0100806364004
0.00971190344381
0.0091164048427
0.00816177036364
0.00660276602901
0.00357459691851
0.0040344005995
0.00815867125715
0.0102787388757
0.0116042968791
0.0124565325115
0.0130026726057
0.013346364162
0.0135573503185
0.0136829321389
0.0137555338951
0.0137963259351
0.0138188729297
0.0138313109098
0.0138384107999
0.0138427915329
0.0138458669956
0.0138483544883
0.0138506146372
0.0138528153259
0.0138550288147
0.0138573056385
0.0138596618653
0.0138620382196
0.0138643446331
0.013866399726
0.0138678310019
0.0138678823404
0.0138651036802
0.0138567543471
0.0138379671773
0.0138003037197
0.0137300421903
0.013605452307
0.0133940179221
0.0130476109958
0.0124965819195
0.0116364199551
0.010300467022
0.00817421452653
0.00403975972532
0.00432271736234
0.0091061918147
0.0116053288289
0.0132021686603
0.0142532968179
0.0149440813259
0.0153908169981
0.0156730713846
0.0158463000499
0.0159495763067