/*--------------------------------*- C++ -*----------------------------------*\
| =========                 |                                                 |
| \\      /  F ield         | foam-extend: Open Source CFD                    |
|  \\    /   O peration     | Version:     4.1                                |
|   \\  /    A nd           | Web:         http://www.foam-extend.org         |
|    \\/     M anipulation  |                                                 |
\*---------------------------------------------------------------------------*/
FoamFile
{
    version     2.0;
    format      ascii;
    class       volScalarField;
    location    "1";
    object      nut;
}
// * * * * * * * * * * * * * * * * * * * * * * * * * * * * * * * * * * * * * //

dimensions      [0 2 -1 0 0 0 0];

internalField   nonuniform List<scalar> 
96000
(
0.000144990189564
0.000148401420018
0.000152045476055
0.000154320443044
0.00015561082398
0.000156319575758
0.000156699156919
0.000156900593722
0.000157005884884
0.000157063189708
0.000157096176599
0.000157118321272
0.000157135566092
0.000157151208672
0.000157166487907
0.000157182063063
0.000157198145846
0.000157214810056
0.000157231979776
0.000157249244297
0.000157266985828
0.000157285692416
0.000157304423887
0.000157323177453
0.000157341985221
0.000157360716288
0.000157379064735
0.00015739647211
0.00015741140742
0.00015742111357
0.000157418742028
0.000157391883506
0.000157313585284
0.00015713702142
0.000156771338627
0.000156065034951
0.000154748868376
0.000152407340911
0.000148625632891
0.00014505970114
0.000148387868632
0.00010183260387
0.000111159652733
0.000116768522511
0.000120102679603
0.000122091123468
0.000123256456773
0.000123925537267
0.000124295097035
0.000124494579486
0.000124597734184
0.00012465048862
0.00012467656373
0.000124689763069
0.000124696540984
0.000124700504879
0.000124703207869
0.000124705495796
0.000124707701014
0.000124709739454
0.0001247122999
0.000124715606256
0.000124719053798
0.000124722710592
0.000124726332401
0.000124729287981
0.000124729919273
0.000124725144016
0.000124707857688
0.000124665309332
0.000124571569963
0.000124383139336
0.000124020528892
0.000123359945562
0.000122194088812
0.00012020817198
0.000116871083859
0.000111259771326
0.000101855046558
0.0001482968127
0.000152016386369
0.000111150379573
0.000124274872935
0.00013203103405
0.000136755150046
0.000139674138294
0.000141458952644
0.000142531334489
0.000143154201796
0.000143506844861
0.000143699010778
0.000143801750129
0.000143855159373
0.00014388317065
0.000143898130601
0.000143906917453
0.000143912805251
0.000143917530416
0.000143921843546
0.000143925988433
0.000143930533572
0.000143935650291
0.000143940833076
0.000143945861848
0.000143950025716
0.000143951815995
0.000143947846094
0.000143931729203
0.000143890434965
0.000143801108455
0.00014362135869
0.000143282682778
0.000142669444552
0.000141608465087
0.000139824891366
0.000136908668193
0.000132174824463
0.000124392135584
0.000111129509993
0.00015183098968
0.000154286930997
0.000116766114031
0.000132038373705
0.000141101764296
0.000146733943252
0.000150300298646
0.000152544388412
0.000153934394708
0.000154769727244
0.000155258555207
0.000155534483596
0.000155686534718
0.000155767968729
0.00015581139267
0.000155834710562
0.000155848035824
0.000155856489887
0.00015586278884
0.000155868199635
0.000155873290423
0.000155878609718
0.000155884316491
0.000155889923701
0.000155894939054
0.000155898142156
0.000155897040356
0.000155886429527
0.000155856655521
0.000155789262048
0.000155652662122
0.000155391658461
0.000154919661512
0.000154097867492
0.000152723766795
0.000150486714505
0.00014692887773
0.000141290934349
0.000132199485404
0.000116766045001
0.000154063379658
0.000155577611531
0.000120107963139
0.000136771309893
0.000146742961652
0.000153039782649
0.000157101324971
0.000159711791695
0.000161365844992
0.000162385217424
0.000162996893477
0.000163351429472
0.00016355150961
0.000163661132217
0.000163720437976
0.000163752438415
0.000163770368993
0.000163781232969
0.00016378878026
0.000163794841513
0.000163800315676
0.000163805777623
0.000163811333175
0.000163816502457
0.000163820510503
0.000163821593084
0.000163816241526
0.000163797446989
0.000163752451583
0.000163657890549
0.000163474679347
0.000163137291989
0.000162545426601
0.000161543966105
0.000159911020954
0.00015731405286
0.000153267252631
0.000146969677536
0.000136970341236
0.000120134282345
0.000155348246345
0.000156288084541
0.000122103047593
0.00013969856561
0.000150318205356
0.00015711057693
0.00016155447656
0.00016445696323
0.000166327939806
0.000167503060894
0.000168221798299
0.000168646790994
0.000168891032103
0.000169027110582
0.000169101503191
0.000169141682673
0.0001691637647
0.000169176536595
0.000169184767643
0.000169190863202
0.00016919604014
0.000169200938771
0.000169205652879
0.000169209663104
0.000169211919433
0.000169210122133
0.000169199781121
0.00016917219227
0.000169111790047
0.000168990924218
0.000168764253277
0.0001683580034
0.000167661490276
0.000166507921309
0.000164662323614
0.000161778451605
0.000157353730391
0.000150564034821
0.000139915965649
0.000122140718499
0.000156060428441
0.000156669225812
0.000123273321894
0.000141489918173
0.000152569887242
0.000159729225353
0.000164465431506
0.000167597294985
0.000169642909688
0.000170946364808
0.000171755341562
0.000172240990397
0.000172523999767
0.000172683646734
0.000172771563575
0.000172818998939
0.000172844585019
0.00017285870426
0.000172867078678
0.00017287266087
0.000172876964226
0.000172880721016
0.000172884018937
0.000172886282721
0.000172886209025
0.000172881003059
0.000172865275251
0.000172828810707
0.000172753611819
0.000172608418019
0.000172342803992
0.00017187653927
0.000171091153736
0.000169811553012
0.000167793986795
0.000164683848293
0.000159968956857
0.000152813578848
0.000141702734012
0.000123301156974
0.000156434596407
0.000156871821289
0.000123945875509
0.000142567292588
0.000153966089744
0.000161390161179
0.000166343719527
0.000169650391236
0.000171831936698
0.00017323717341
0.000174118968599
0.00017465428975
0.000174969402838
0.000175148639355
0.000175247679829
0.000175300825301
0.00017532880143
0.000175343362966
0.000175351067351
0.000175355356561
0.000175358012008
0.000175359867134
0.000175361020154
0.000175360834859
0.000175357790819
0.00017534866279
0.000175327289158
0.000175282177833
0.000175193322852
0.000175026550468
0.000174727457393
0.00017421091341
0.000173352775625
0.000171972205286
0.000169819759384
0.000166536138015
0.000161604233218
0.000154184026665
0.000142751345604
0.000123942924048
0.000156627421949
0.000156977446981
0.000124316984115
0.00014319311353
0.000154805497287
0.000162414323291
0.00016752414744
0.000170959438902
0.000173242895057
0.000174725633871
0.000175663579841
0.000176237519053
0.00017657763485
0.000176771953494
0.000176879223783
0.000176936118602
0.000176965039376
0.000176978862086
0.000176984846317
0.000176986853107
0.000176986897302
0.000176985913235
0.000176984020034
0.000176980532691
0.000176973754025
0.000176960107872
0.000176932807541
0.000176879332112
0.000176778088669
0.000176592648937
0.000176265609764
0.000175708242909
0.000174792401288
0.000173333428052
0.000171078393541
0.000167665747199
0.00016257644533
0.000154970972972
0.00014333311732
0.000124283584189
0.00015671934672
0.000157034400874
0.000124516393535
0.000143546878581
0.000155296357693
0.00016302867667
0.000168246050815
0.000171771888538
0.000174128339061
0.000175667288956
0.000176646274764
0.000177248454767
0.000177606645099
0.000177811466097
0.000177923904055
0.000177982405705
0.000178010658758
0.000178022417029
0.000178025500562
0.000178024117894
0.000178020487406
0.000178015634228
0.000178009706075
0.000178001989246
0.000177990657774
0.000177971866365
0.000177938350595
0.000177876810532
0.000177764463963
0.000177563217762
0.000177213506886
0.000176624085169
0.000175664142142
0.000174146635772
0.000171818748054
0.000168326527743
0.000163141376008
0.000155424963038
0.000143651240345
0.000124452863048
0.00015676102887
0.000157066335821
0.000124617869883
0.000143738255601
0.000155572194235
0.000163383642314
0.000168671874509
0.000172258645316
0.00017466493939
0.000176242589913
0.000177249844656
0.000177871239922
0.000178241286818
0.000178452361275
0.00017856702507
0.000178625007628
0.000178650948796
0.000178659266617
0.000178658221629
0.000178652297285
0.000178643883091
0.000178634092088
0.000178623107048
0.000178610205861
0.000178593477491
0.000178568888653
0.000178528832565
0.000178459449342
0.000178337114249
0.000178122597717
0.000177754877363
0.000177144025761
0.000176165697431
0.000174621606914
0.000172254993638
0.000168704648616
0.000163450842224
0.000155658417841
0.000143803266886
0.00012452348798
0.000156778622673
0.000157086861691
0.000124667579136
0.000143838575454
0.00015572226447
0.000163582079591
0.000168914760429
0.000172540490955
0.000174979009659
0.000176581719959
0.000177607066251
0.000178240311646
0.000178617014129
0.000178830696909
0.000178944995466
0.000179000535353
0.000179022647582
0.000179026244104
0.00017901991737
0.000179008369576
0.000178994133596
0.000178978408553
0.00017896141876
0.000178942450743
0.000178919551068
0.000178888569358
0.000178841671745
0.000178764683803
0.000178633463998
0.000178421049936
0.000178058098064
0.000177446006706
0.000176450354407
0.000174882216895
0.000172484570282
0.000168896898756
0.000163600717941
0.000155763637603
0.00014386361196
0.000124545300988
0.00015679042799
0.000157101909498
0.000124689341384
0.00014388804926
0.000155799985096
0.000163688167194
0.000169047446225
0.000172696837681
0.000175154993338
0.000176772791234
0.000177808619574
0.000178448084488
0.000178827371597
0.000179040730929
0.000179152521094
0.00017920399106
0.000179220961459
0.000179218707454
0.000179206076873
0.000179187947914
0.000179166979712
0.000179144450188
0.000179120634164
0.000179094844631
0.000179065118748
0.000179027304869
0.000178973549025
0.000178908142005
0.000178792471661
0.000178582958503
0.000178215835755
0.000177596087108
0.000176588685862
0.000175004826069
0.000172587594463
0.000168977347844
0.000163656555624
0.000155795488428
0.000143873980143
0.000124543592055
0.000156804192628
0.000157114827934
0.000124697078611
0.00014391078991
0.000155838183764
0.000163742270551
0.000169116629828
0.000172779535455
0.00017524877709
0.00017687473988
0.000177915659556
0.000178557273844
0.000178936133179
0.0001791469498
0.000179254571604
0.000179300675121
0.000179311440944
0.000179302412764
0.000179282639273
0.000179257146863
0.000179228710814
0.000179198687743
0.000179167404328
0.000179134240749
0.00017909743616
0.000179070200226
0.000179037084025
0.000178976416111
0.000178861582925
0.000178650680167
0.00017827989077
0.000177654206321
0.000176638645029
0.000175044495547
0.000172615159543
0.000168991987309
0.00016365829905
0.000155786496283
0.000143857979174
0.00012453150881
0.00015682350879
0.00015712687343
0.000124697291123
0.000143919222941
0.000155854864008
0.000163767529465
0.000169149956463
0.000172820010389
0.000175294840005
0.000176924419239
0.000177966813318
0.000178607782768
0.0001789840995
0.000179190775271
0.000179292994548
0.00017933274936
0.000179336488831
0.000179319969992
0.000179292406034
0.000179258953806
0.000179222501344
0.000179184488589
0.000179145415186
0.000179113724239
0.000179099301525
0.000179082202006
0.000179051715698
0.000178991484614
0.000178875440808
0.000178662042738
0.000178287548629
0.00017765699245
0.000176635497722
0.000175034672478
0.000172598198377
0.000168968150609
0.00016362870846
0.000155754100006
0.00014382709921
0.000124514035622
0.000156848522214
0.000157138724636
0.00012469361298
0.000143920290973
0.000155860239381
0.000163777315306
0.000169163685221
0.000172837045544
0.000175314069014
0.000176944398044
0.000177985937369
0.000178624425475
0.000178996774481
0.000179198200491
0.000179294145165
0.000179326841022
0.000179322955275
0.000179298425787
0.000179262609374
0.000179220785516
0.00017917596727
0.000179129944191
0.000179106201605
0.000179094320453
0.000179084013026
0.000179068239928
0.000179037211581
0.000178975284066
0.000178856683647
0.000178640081643
0.000178261862323
0.000177627144455
0.000176601170899
0.000174995855439
0.000172555208104
0.000168921984733
0.00016358097605
0.000155708083307
0.000143787390319
0.000124493473125
0.000156878822722
0.000157150537963
0.000124687596529
0.000143917283763
0.000155859479978
0.000163778691298
0.000169166682546
0.000172841128505
0.000175318337763
0.000176947682964
0.000177986928413
0.000178621770976
0.000178989222653
0.000179184659428
0.000179273732545
0.000179298879382
0.000179286958301
0.000179254069023
0.000179209705624
0.000179159292856
0.000179108828763
0.000179088210053
0.000179075687375
0.000179066585977
0.000179056325905
0.00017903904906
0.00017900567082
0.000178940796894
0.000178818933337
0.000178598839864
0.000178216983644
0.000177578575699
0.000176549048861
0.000174940505566
0.000172497360258
0.000168862958446
0.000163522619067
0.000155653784218
0.000143741873761
0.000124470443264
0.000156913470298
0.000157162405482
0.000124680081614
0.000143911946256
0.000155855330105
0.000163775456585
0.000169163785357
0.000172838060297
0.000175314294009
0.000176941631608
0.000177977714554
0.00017860819109
0.000178970160027
0.000179159133757
0.000179240951394
0.000179258240245
0.00017923803717
0.000179196599651
0.000179143605144
0.000179092762731
0.00017906966975
0.000179054658239
0.000179043798944
0.000179033821279
0.000179021321534
0.000179001101451
0.000178964418638
0.000178896066814
0.00017877065723
0.000178547006854
0.000178161640567
0.000177519875739
0.000176487302844
0.00017487622107
0.000172431436654
0.00016879677628
0.000163458095079
0.00015559429545
0.000143692143095
0.000124445104957
0.000156951851048
0.00015717424721
0.000124671386133
0.000143905024809
0.000155849048912
0.000163769451155
0.000169157423787
0.000172830839185
0.000175305445949
0.000176930192637
0.000177962605927
0.000178588292458
0.000178944432017
0.000179126666104
0.000179201018217
0.000179210297446
0.000179181727303
0.000179131792641
0.000179081087774
0.000179055437616
0.000179037227151
0.000179023041795
0.0001790106135
0.000178997905658
0.000178982089903
0.000178958305275
0.000178917975752
0.000178846015949
0.000178717086326
0.000178490020177
0.000178101387032
0.000177456564623
0.000176421258893
0.000174808018915
0.000172361925728
0.000168727311522
0.000163390482466
0.000155531791512
0.000143639399257
0.000124417585928
0.000156993631645
0.000157185653865
0.000124661350527
0.000143896756607
0.000155841213625
0.00016376161744
0.000169148885571
0.000172821073915
0.000175293692977
0.000176915514555
0.000177943967525
0.000178564623033
0.00017891474509
0.00017909010981
0.000179156923779
0.000179158185749
0.000179121355962
0.000179073515131
0.000179046994406
0.000179025871301
0.000179007989786
0.000178991885666
0.000178976420113
0.000178960173233
0.000178940641883
0.00017891319679
0.000178869320551
0.000178793967822
0.000178661807646
0.000178431659758
0.000178040095891
0.000177392543771
0.00017635478919
0.00017473958603
0.000172292265409
0.000168657615651
0.000163322358516
0.000155468274455
0.000143584915936
0.000124388433103
0.000157039148365
0.000157197055068
0.000124650929052
0.000143887927321
0.000155832620942
0.000163752739096
0.000169139003503
0.000172809665697
0.000175280019077
0.000176898674362
0.000177922968495
0.000178538444519
0.000178882452091
0.000179050900715
0.000179110184618
0.000179103516448
0.000179065933054
0.000179042691786
0.000179020691623
0.000178999842773
0.000178979886074
0.000178960599117
0.000178941501244
0.000178921519533
0.00017889837631
0.000178867520208
0.000178820492485
0.000178742237093
0.000178607386923
0.000178374714665
0.000177980754649
0.000177330920478
0.000176291058887
0.000174674063875
0.00017222549343
0.000168590519226
0.000163256256011
0.000155405882066
0.000143530341365
0.000124358626569
0.000157089100849
0.000157208960159
0.000124640545176
0.000143878826076
0.00015582346533
0.000163742971933
0.000169127916862
0.000172796754977
0.000175264582715
0.000176879858247
0.000177899834385
0.000178510029863
0.000178847882063
0.000179009437403
0.000179061285815
0.000179049276219
0.000179037579278
0.000179019138592
0.000178997609433
0.000178974776358
0.000178951679224
0.000178928761492
0.000178905967825
0.000178882460977
0.000178856101365
0.000178822390531
0.000178772882352
0.000178692484526
0.000178555761635
0.000178321379
0.00017792578262
0.000177274316355
0.000176232844534
0.000174614324389
0.000172164505136
0.000168528881654
0.000163194886466
0.000155347069449
0.000143477724874
0.000124329588111
0.000157144161017
0.000157220565244
0.000124629299728
0.000143868775232
0.000155813200473
0.000163731810168
0.0001691151307
0.000172781828567
0.000175246844558
0.000176858506832
0.000177874001311
0.000178478829183
0.000178810520613
0.000178965263515
0.000179010084386
0.000179021555464
0.000179015208979
0.000178997747796
0.000178974530653
0.000178948688595
0.00017892204876
0.000178895515385
0.000178869315108
0.000178842779553
0.000178813869681
0.000178778123989
0.000178727081427
0.000178645586536
0.000178508092895
0.000178273104091
0.000177876913687
0.000177224732824
0.000176182382519
0.000174562813686
0.000172111897474
0.00016847539497
0.000163140954994
0.000155294403831
0.0001434293145
0.000124302939829
0.000157204515292
0.000157231789716
0.000124617497867
0.000143857776463
0.000155801540025
0.000163718681812
0.000169099784912
0.000172763770143
0.000175225472185
0.00017683311968
0.000177843848818
0.000178443152961
0.000178768652659
0.000178916782798
0.000178976235037
0.000178997386542
0.000178992809038
0.000178974163346
0.00017894818857
0.000178918952122
0.00017888878259
0.000178858934375
0.000178829848802
0.000178801001083
0.000178770432054
0.000178733709056
0.000178682340161
0.000178601073203
0.000178464200632
0.000178230015003
0.00017783459539
0.000177182940142
0.000176140759939
0.000174520963464
0.000172069436323
0.000168432125536
0.000163096782669
0.000155250324006
0.000143387386355
0.000124280354537
0.000157270146393
0.000157242756134
0.000124605079759
0.000143845257197
0.000155787428521
0.00016370199722
0.000169079774023
0.000172739986847
0.000175197452605
0.000176800341164
0.000177805765423
0.00017839921398
0.000178718411037
0.000178869703474
0.000178945197268
0.000178968988909
0.000178963860264
0.000178942837441
0.000178913661811
0.00017888099478
0.000178847553884
0.000178814872462
0.000178783585587
0.00017875331014
0.000178722148489
0.000178685704403
0.000178635443631
0.000178555965488
0.000178421350817
0.000178189653713
0.000177796693282
0.000177147190399
0.000176106686926
0.000174487992098
0.00017203693783
0.000168399536332
0.000163063473306
0.000155216535178
0.000143354024145
0.000124263696914
0.00015734145325
0.000157253426714
0.000124591617944
0.000143829913073
0.000155768594914
0.000163678473958
0.000169050840722
0.000172705335396
0.000175156882037
0.0001767536514
0.00017775276535
0.000178339694257
0.000178652424667
0.000178823649151
0.000178902019932
0.000178925946583
0.000178918948159
0.000178894967911
0.000178862457807
0.000178826532172
0.000178790209292
0.000178755278139
0.000178722571471
0.00017869183216
0.000178661259637
0.000178626480401
0.000178578884405
0.00017850289444
0.00017837236814
0.000178145091743
0.000177756600045
0.000177111336426
0.000176074643579
0.000174459170901
0.000172010643311
0.000168375000318
0.000163039644761
0.000155192981844
0.00014333053304
0.00012425513941
0.000157419321706
0.000157263547055
0.00012457566952
0.000143808552919
0.000155740069715
0.000163641357223
0.000169004555233
0.000172649889473
0.000175092570991
0.000176680848137
0.000177671875737
0.000178251147974
0.000178576149356
0.000178751116804
0.000178829969139
0.000178852439278
0.000178842748678
0.000178815509138
0.000178779700003
0.000178740771846
0.000178702002284
0.000178665427413
0.000178632069667
0.000178601839815
0.000178573041414
0.000178541294159
0.000178497894712
0.000178427115248
0.000178302601571
0.000178081864738
0.000177700173278
0.000177061784846
0.000176031872096
0.000174422902636
0.000171980427677
0.000168350154449
0.000163018954082
0.000155175429387
0.000143314776111
0.000124254353159
0.000157503230601
0.00015727270754
0.000124554390939
0.000143775115693
0.000155692543901
0.000163578249876
0.000168925726732
0.000172556039087
0.000174984914379
0.000176560752797
0.000177540751124
0.000178115666965
0.000178451310414
0.000178625880586
0.000178703134456
0.000178722943858
0.000178710022433
0.000178679351161
0.000178640326607
0.000178598635553
0.000178557821025
0.00017852014516
0.000178486835703
0.000178457983383
0.000178431981519
0.000178404447336
0.000178366613044
0.000178302640543
0.000178186007396
0.000177974026089
0.000177601859182
0.000176973680476
0.000175954643591
0.000174357110995
0.000171926420859
0.000168307870943
0.000162987480287
0.000155153448781
0.000143299876976
0.000124257717442
0.000157592144644
0.000157279528796
0.000124520909856
0.000143716869842
0.000155607905151
0.000163466171905
0.000168787120909
0.000172392966852
0.000174800203915
0.000176357413664
0.000177321849241
0.000177903050713
0.000178235183083
0.000178406517854
0.000178480360774
0.000178496515973
0.000178479837453
0.000178445595981
0.000178403432662
0.000178359179035
0.000178316617613
0.000178278236301
0.000178245487623
0.000178218615978
0.000178196107731
0.000178173623077
0.000178142390217
0.00017808650529
0.000177979395336
0.000177778419868
0.000177418895885
0.000176805150785
0.000175802568732
0.000174223637108
0.000171813537643
0.000168217006733
0.000162918834125
0.000155106109709
0.000143270898687
0.000124256465342
0.000157683023033
0.000157281448957
0.000124462922115
0.00014361149803
0.000155455118034
0.000163266609073
0.000168543984753
0.00017211085363
0.000174484651438
0.000176014066727
0.000176964567427
0.000177541073222
0.000177865035084
0.000178030075755
0.000178098552542
0.000178109998513
0.000178089096478
0.000178051161292
0.000178005887317
0.00017795919365
0.000177915058584
0.000177876178298
0.00017784420395
0.000177819537675
0.000177800792621
0.000177783724231
0.00017775961334
0.00017771262671
0.000177616417985
0.000177428719776
0.000177085371044
0.000176491334378
0.00017551270493
0.000173962445832
0.000171585845046
0.000168027068114
0.000162769409066
0.000154998135472
0.000143202369388
0.000124236242295
0.000157771545375
0.000157271817909
0.000124354835295
0.000143417065017
0.000155179499145
0.000162914603269
0.00016812314284
0.000171630089502
0.000173953759622
0.00017544267409
0.000176378418627
0.000176936276045
0.000177246865269
0.000177402259694
0.000177463428542
0.00017746911566
0.000177443540798
0.000177401774396
0.0001773533873
0.000177304293166
0.000177258609776
0.000177219192204
0.000177187861804
0.000177165196582
0.000177149974446
0.00017713808818
0.000177120997672
0.000177083208896
0.000176998935426
0.000176826700885
0.000176503465152
0.000175935550148
0.000174990485132
0.000173482319117
0.000171157001158
0.000167658371834
0.000162468276545
0.000154769701327
0.000143048252896
0.000124167949246
0.000157846562228
0.000157238746953
0.000124153824405
0.000143065917254
0.000154695287111
0.000162310660174
0.000167414691198
0.000170832961553
0.000173084143785
0.000174525149059
0.000175425748299
0.000175955802436
0.000176246999213
0.000176388981955
0.000176440750001
0.000176439668531
0.000176409026358
0.000176363356866
0.000176311895636
0.000176260430704
0.000176213120762
0.000176172931251
0.00017614183175
0.000176120571772
0.000176108120332
0.000176100608004
0.000176089879136
0.000176061062988
0.000175989344832
0.000175834650247
0.000175535889017
0.000175001662428
0.000174101964228
0.000172652973034
0.000170402282495
0.000166994086096
0.0001619094051
0.000154329279033
0.000142736246978
0.000124005107444
0.000157891766978
0.000157155711834
0.000123780888404
0.000142443028256
0.000153864301927
0.000161300301002
0.000166252482502
0.000169545027521
0.000171695657163
0.000173073548694
0.00017392012362
0.000174412140943
0.000174677464795
0.000174802209075
0.000174842595672
0.000174833908225
0.000174798013247
0.000174748560001
0.000174694198554
0.000174640464515
0.000174591444476
0.000174550148158
0.000174518666299
0.000174497907246
0.000174487073888
0.000174482666982
0.000174477131241
0.00017445653279
0.000174397544135
0.00017426225467
0.00017399251264
0.000173500368991
0.000172659703266
0.000171290314869
0.000169142940222
0.000165863442648
0.000160933718352
0.000153534348448
0.000142147304546
0.000123663606629
0.00015787041026
0.000156976830711
0.000123113140895
0.000141376135878
0.000152484817611
0.000159662295788
0.000164402103964
0.000167523016292
0.000169548671934
0.000170830354405
0.000171605994773
0.000172048923824
0.000172281687416
0.000172385511784
0.000172412822302
0.000172396033967
0.00017235503124
0.000172302193529
0.000172245343159
0.000172189616864
0.000172138919434
0.000172096211315
0.000172063649583
0.000172042324065
0.000172031735579
0.000172028848641
0.000172026922858
0.000172013334623
0.000171966811703
0.000171852424433
0.000171616119324
0.000171174892964
0.00017040835093
0.000169141904118
0.000167131673067
0.000164027582165
0.000159315557356
0.000152179082487
0.000141105666188
0.000123016563873
0.000157726812627
0.000156612201221
0.000121943776706
0.000139590874714
0.000150246716977
0.000157064655477
0.000161517870939
0.000164412940429
0.000166278717215
0.000167435073528
0.000168122386438
0.000168505588658
0.000168699885915
0.000168780023845
0.000168793428055
0.000168768794555
0.000168723478145
0.000168668211089
0.000168609772309
0.000168552744494
0.000168500745487
0.000168456599913
0.000168422470299
0.000168399625604
0.00016838792851
0.00016838492411
0.0001683848675
0.000168376763279
0.000168341966358
0.000168249379885
0.000168050330341
0.000167668508477
0.000166991513862
0.000165852958725
0.000164017686207
0.000161143373911
0.000156724799429
0.000149954262505
0.000139336683399
0.000121852139732
0.000157350306655
0.000155912165431
0.000119958367658
0.000136677374308
0.000146692133733
0.000153021316191
0.000157096825359
0.000159712783689
0.000161364540754
0.000162367143873
0.000162948558303
0.000163262181919
0.00016341321247
0.000163467983022
0.000163467613254
0.000163436200103
0.000163388030195
0.000163331846673
0.000163273181176
0.000163215941106
0.000163163349643
0.000163118012113
0.00016308202196
0.000163056788625
0.000163042611331
0.00016303774391
0.00016303755659
0.000163032905564
0.000163008293604
0.000162937331909
0.000162778112053
0.00016246298461
0.000161890420648
0.000160905841357
0.000159287506333
0.000156706242982
0.000152673039437
0.000146399264126
0.000136428282019
0.00011985083691
0.000156576465056
0.000154609564626
0.000116627046511
0.00013195191224
0.000141063262739
0.000146733073283
0.000150318518761
0.000152578363238
0.000153968590442
0.000154788505645
0.000155248336487
0.000155485306921
0.000155591102815
0.000155621424599
0.00015560964889
0.000155574464054
0.000155526625106
0.000155472616607
0.000155416596368
0.00015536167169
0.000155310599716
0.000155265706573
0.000155228893451
0.00015520158575
0.00015518462683
0.00015517710885
0.000155175527894
0.000155172682447
0.000155156617201
0.000155106430248
0.000154988359681
0.000154745590214
0.000154290927754
0.000153486336566
0.000152130038306
0.000149914003825
0.000146377233444
0.000140767377762
0.000131702160022
0.000116477188132
0.000155119815014
0.000152292479823
0.000111025995395
0.000124181086314
0.000131984133598
0.000136746186821
0.00013969216985
0.000141491818372
0.000142563400961
0.000143170014609
0.000143494134085
0.000143649775619
0.000143710937285
0.000143719932718
0.000143701031237
0.00014366677124
0.000143624011713
0.000143576762795
0.000143527703402
0.000143479037377
0.000143432950662
0.000143391419732
0.000143356043545
0.000143328020818
0.000143308683782
0.000143298247648
0.000143294242584
0.000143291357614
0.000143281477961
0.000143249784639
0.000143172025181
0.000143004627586
0.000142679119333
0.000142080649142
0.000141037599499
0.000139276835141
0.000136386457631
0.000131682576559
0.000123922936576
0.000110791988379
0.00015257681986
0.000148553468626
0.00010164928473
0.000110945437725
0.000116579058929
0.000119940606275
0.000121955318098
0.000123132288861
0.000123799519908
0.000124153878771
0.000124329525623
0.000124404586865
0.000124428801433
0.000124427535526
0.000124414327589
0.000124394873581
0.000124371885596
0.00012434689242
0.000124320970976
0.000124295238824
0.000124271110118
0.000124250027418
0.000124233087123
0.000124220886634
0.000124214691849
0.000124215892823
0.000124222900289
0.00012423206412
0.00012423910579
0.000124235563878
0.000124207839801
0.000124128518097
0.000123954111542
0.000123603915895
0.000122955000136
0.000121797261592
0.000119812437022
0.000116460197322
0.000110794825565
0.00010134054077
0.000148616439356
0.000145051769023
0.00014823691328
0.000151768190105
0.000153995408424
0.000155278183962
0.000155990965541
0.000156369760271
0.00015656646857
0.000156658852302
0.00015670113365
0.000156720311213
0.000156735531378
0.00015675453646
0.000156780425999
0.000156813083102
0.000156852050138
0.000156895950223
0.000156944196993
0.00015699702806
0.000157054816654
0.00015711772655
0.000157185653278
0.000157258272702
0.000157335761502
0.000157418434298
0.00015750505198
0.000157593864827
0.00015768344124
0.000157770354788
0.000157850584204
0.000157914115772
0.000157946471181
0.000157912854847
0.000157760285726
0.000157379262113
0.000156606814415
0.00015515351512
0.000152610075942
0.000148625727987
0.000145277438575
0.000148187496617
0.000164067213372
0.000174693821637
0.000180996152366
0.000184722680021
0.000186910590156
0.000188169993155
0.000188879755531
0.000189268595458
0.000189479356119
0.000189593154469
0.000189657496354
0.000189697037954
0.000189725199631
0.000189748326975
0.00018976963146
0.000189790538582
0.000189811676376
0.000189833200831
0.000189854905028
0.000189877136159
0.000189900453783
0.000189923984936
0.000189947524249
0.000189970826956
0.000189993233453
0.000190013267355
0.000190027843956
0.000190030167347