/*--------------------------------*- C++ -*----------------------------------*\
| =========                 |                                                 |
| \\      /  F ield         | foam-extend: Open Source CFD                    |
|  \\    /   O peration     | Version:     4.1                                |
|   \\  /    A nd           | Web:         http://www.foam-extend.org         |
|    \\/     M anipulation  |                                                 |
\*---------------------------------------------------------------------------*/
FoamFile
{
    version     2.0;
    format      ascii;
    class       volScalarField;
    location    "1";
    object      p;
}
// * * * * * * * * * * * * * * * * * * * * * * * * * * * * * * * * * * * * * //

dimensions      [1 -1 -2 0 0 0 0];

internalField   nonuniform List<scalar> 
96000
(
5198.81937017
5198.79451863
5198.63846403
5198.41891925
5198.10068282
5197.69786075
5197.2127179
5196.64597005
5196.00733339
5195.29823352
5194.52803179
5193.70084262
5192.82502741
5191.90650172
5190.95303191
5189.97138813
5188.96898898
5187.9528859
5186.93029263
5185.9078939
5184.89147151
5183.88825438
5182.90531569
5181.94773863
5181.0214571
5180.13167179
5179.28372892
5178.48204518
5177.73175054
5177.03615997
5176.40058901
5175.82680895
5175.32040418
5174.88164133
5174.51471137
5174.22156584
5173.99623733
5173.85609816
5173.7570046
5173.76155234
5198.8005077
5198.83264835
5198.71357562
5198.52517706
5198.22994325
5197.84618623
5197.37715493
5196.82454881
5196.19875589
5195.50182607
5194.74354052
5193.9283341
5193.06473905
5192.15880536
5191.21833387
5190.25011743
5189.26155024
5188.25963323
5187.25150791
5186.24388571
5185.2423666
5184.25401045
5183.2859704
5182.34313083
5181.43132984
5180.55564986
5179.72128692
5178.93249947
5178.19420249
5177.50945654
5176.8833467
5176.31725888
5175.81644787
5175.38045249
5175.01341052
5174.71605089
5174.48332434
5174.33076767
5174.21589849
5174.2037056
5198.6379923
5198.70608063
5198.61591336
5198.45459945
5198.18264656
5197.82044933
5197.37157181
5196.83893744
5196.23289252
5195.55617691
5194.81844733
5194.02459427
5193.18308367
5192.30016025
5191.38357119
5190.44013601
5189.47716864
5188.50159109
5187.52036496
5186.54022757
5185.5667284
5184.60663661
5183.66664812
5182.75184529
5181.86771347
5181.01915812
5180.21110398
5179.44762471
5178.73333265
5178.07115402
5177.46554729
5176.91780379
5176.43265245
5176.00960209
5175.65247359
5175.36133508
5175.1319866
5174.9779264
5174.8611552
5174.85025508
5198.41234448
5198.51057103
5198.44714928
5198.31635737
5198.07310955
5197.74027324
5197.3206551
5196.81808547
5196.24263439
5195.59774699
5194.89299458
5194.1336537
5193.32813481
5192.48283112
5191.60540313
5190.70264398
5189.78173062
5188.84943553
5187.91253454
5186.97755772
5186.04997168
5185.13595863
5184.24196879
5183.37295614
5182.53397995
5181.72961053
5180.96436424
5180.24193976
5179.56645696
5178.94048766
5178.36802653
5177.85006723
5177.39082047
5176.98957167
5176.65000295
5176.37204138
5176.15242482
5176.00467597
5175.89309363
5175.88729395
5198.07989779
5198.20013267
5198.15941129
5198.05705176
5197.84244654
5197.54068317
5197.15350043
5196.68563232
5196.14673478
5195.5407762
5194.87707851
5194.16119434
5193.40137966
5192.60409519
5191.77684681
5190.92633705
5190.0595427
5189.18303036
5188.3033173
5187.42658035
5186.55818979
5185.70387929
5184.86957441
5184.06001252
5183.27979782
5182.53308321
5181.82391716
5181.15558169
5180.53166991
5179.95437661
5179.42714544
5178.95075919
5178.52887216
5178.16077036
5177.84963286
5177.59570058
5177.39524642
5177.26340413
5177.16297005
5177.16970735
5197.65989647
5197.79808464
5197.77846981
5197.70488686
5197.52119558
5197.25463592
5196.90550933
5196.47925898
5195.98501636
5195.42708266
5194.81452471
5194.15303072
5193.4506718
5192.71387929
5191.9499535
5191.16542856
5190.36701758
5189.56100873
5188.75358574
5187.95051555
5187.15691771
5186.37801783
5185.61915079
5184.88469593
5184.17873346
5183.50489389
5182.86666639
5182.26681313
5181.70834075
5181.19298287
5180.72359726
5180.30066145
5179.92727427
5179.6027466
5179.32970017
5179.1091759
5178.93634345
5178.82932566
5178.74668989
5178.77095111
5197.15362744
5197.30686412
5197.30707923
5197.26205621
5197.11060079
5196.88197042
5196.57494109
5196.19556811
5195.75241784
5195.24998516
5194.6970325
5194.09926016
5193.46449868
5192.79905419
5192.10996136
5191.40350891
5190.68608086
5189.96361549
5189.2418847
5188.52618659
5187.82126493
5187.13182486
5186.46255218
5185.81733132
5185.19965929
5184.6125677
5184.05891949
5183.54088538
5183.06083648
5182.6199856
5182.22057616
5181.86273558
5181.54895788
5181.27855505
5181.05337454
5180.87531446
5180.73782231
5180.66219512
5180.6017485
5180.64544827
5196.56395821
5196.73030091
5196.75013839
5196.73450002
5196.61756284
5196.43042588
5196.17029537
5195.84372114
5195.45867948
5195.01973067
5194.53530942
5194.01102118
5193.454413
5192.87157756
5192.26922583
5191.65332307
5191.0298575
5190.40434235
5189.78206347
5189.16778645
5188.56576647
5187.98011878
5187.41483263
5186.87318274
5186.35800765
5185.87165932
5185.41630106
5184.99343126
5184.60472453
5184.25079129
5183.93321175
5183.6516855
5183.40805133
5183.20158386
5183.03324218
5182.90589951
5182.81085549
5182.77302604
5182.73927626
5182.80542803
5195.90186655
5196.08020986
5196.11933158
5196.13378178
5196.0532628
5195.91074681
5195.70181413
5195.43343926
5195.11297554
5194.74494661
5194.33742074
5193.89581001
5193.42732414
5192.93775687
5192.43343215
5191.91991434
5191.40272745
5190.88688552
5190.37711703
5189.87758745
5189.39196511
5188.92370802
5188.47606242
5188.05159571
5187.65241179
5187.2801098
5186.93608494
5186.62109068
5186.33604743
5186.08089208
5185.85649051
5185.66203825
5185.49866082
5185.36551114
5185.26254926
5185.19350909
5185.1474012
5185.15238061
5185.14905528
5185.23869045
5195.17045351
5195.3601739
5195.41909569
5195.46501008
5195.42341442
5195.32906678
5195.17592538
5194.97132908
5194.72199299
5194.43232667
5194.11000015
5193.76015206
5193.38960396
5193.00377506
5192.60854088
5192.20899058
5191.81011563
5191.41635762
5191.03181814
5190.65999092
5190.3038668
5189.96617624
5189.64936915
5189.35521884
5189.08501722
5188.839537
5188.61933602
5188.42434749
5188.25467305
5188.10949859
5187.98891369
5187.89152664
5187.81768125
5187.76632585
5187.73632271
5187.73221027
5187.74053711
5187.79272945
5187.8228433
5187.93757887
5194.38088149
5194.58178463
5194.660894
5194.73959955
5194.73922496
5194.69639618
5194.60340253
5194.46791527
5194.29597783
5194.09181656
5193.8626606
5193.6132989
5193.35010926
5193.07806038
5192.80251543
5192.52801551
5192.25895105
5191.99911927
5191.75192523
5191.52011614
5191.30592477
5191.11128695
5190.9378001
5190.78636485
5190.65738744
5190.55074389
5190.46608967
5190.40246993
5190.35910355
5190.33435566
5190.32748086
5190.33642297
5190.36068114
5190.39891213
5190.4488105
5190.51559223
5190.58331726
5190.68638359
5190.75255343
5190.89307072
5193.53894378
5193.75110859
5193.85129661
5193.96451629
5194.00799299
5194.02023088
5193.99182908
5193.93076921
5193.84239877
5193.73070716
5193.60244412
5193.46198446
5193.31520843
5193.16656522
5193.02084192
5192.88196197
5192.75364808
5192.63898453
5192.54060969
5192.46044865
5192.39990046
5192.3600464
5192.34157329
5192.34443347
5192.36807793
5192.41141925
5192.4731459
5192.55134837
5192.64430218
5192.74948503
5192.86525419
5192.98881304
5193.1187456
5193.25333822
5193.3890393
5193.53169321
5193.66278087
5193.81965193
5193.92374119
5194.09074868
5192.65473554
5192.87841792
5193.00051359
5193.14992706
5193.23975714
5193.31046172
5193.35090308
5193.36936224
5193.37045363
5193.3578793
5193.33786424
5193.31430617
5193.2925307
5193.27639994
5193.27006071
5193.27674992
5193.2994557
5193.34048246
5193.40163409
5193.48393575
5193.58788369
5193.71365346
5193.86096159
5194.028739
5194.21541927
5194.41889163
5194.63681809
5194.86627358
5195.10453995
5195.34815471
5195.59452259
5195.8400413
5196.08230196
5196.31915039
5196.54574375
5196.76849636
5196.96626493
5197.1792762
5197.3227518
5197.51644959
5191.73574599
5191.97131326
5192.11635053
5192.30379272
5192.44257552
5192.57515011
5192.68860378
5192.79150836
5192.88770927
5192.98057927
5193.07577419
5193.17665681
5193.28794228
5193.41284164
5193.55479866
5193.71629771
5193.8995271
5194.10594657
5194.33645777
5194.59110766
5194.8694307
5195.17065842
5195.49346974
5195.83570553
5196.19473318
5196.56736973
5196.9501844
5197.339149
5197.73052001
5198.11985161
5198.50358351
5198.87727698
5199.23748116
5199.58152478
5199.90319671
5200.20946259
5200.47646437
5200.74730494
5200.93098628
5201.1514215
5190.79120243
5191.03906142
5191.20801842
5191.43524115
5191.62543006
5191.82308582
5192.01347499
5192.20545088
5192.4020481
5192.60626815
5192.82314984
5193.05546346
5193.30725664
5193.58102628
5193.87945019
5194.20419577
5194.55658788
5194.93718089
5195.34590429
5195.78174537
5196.24323537
5196.72864227
5197.23551698
5197.76052775
5198.29996604
5198.84958402
5199.40484941
5199.96054481
5200.51181769
5201.05317254
5201.57989131
5202.0865182
5202.56857353
5203.0231294
5203.44259186
5203.83450404
5204.17210789
5204.50175052
5204.72590158
5204.97241145
5189.82913786
5190.08970281
5190.28358049
5190.55230653
5190.79626649
5191.0620511
5191.3330607
5191.61841795
5191.92030459
5192.24131125
5192.58581073
5192.9559267
5193.35498238
5193.78469975
5194.24692923
5194.74245823
5195.27168837
5195.83421549
5196.42891673
5197.05363907
5197.70590908
5198.38306472
5199.08146078
5199.79645457
5200.52323045
5201.25614962
5201.98930661
5202.71660911
5203.43234028
5204.12993218
5204.80358932
5205.44701417
5206.05469212
5206.62303253
5207.14284257
5207.6222391
5208.03171641
5208.42061099
5208.68537285
5208.95773344
5188.85799862
5189.13166144
5189.35138284
5189.66319121
5189.96307788
5190.2997642
5190.65473829
5191.03737633
5191.44896392
5191.89163976
5192.36906057
5192.8826497
5193.43494913
5194.02684687
5194.65930651
5195.33217681
5196.04488372
5196.79603004
5197.58334764
5198.40347273
5199.25290619
5200.12780835
5201.02295093
5201.93283536
5202.85152588
5203.77234324
5204.68837903
5205.5922912
5206.47699385
5207.33478876
5208.15883942
5208.94196766
5209.67750106
5210.36125146
5210.98258866
5211.55020827
5212.0318193
5212.47966173
5212.78438849
5213.08134719
5187.88563959
5188.17273097
5188.41911896
5188.7754237
5189.13316017
5189.54322083
5189.98513072
5190.46849799
5190.99366742
5191.56228387
5192.17723864
5192.83920263
5193.54988142
5194.30927185
5195.11739243
5195.9730885
5196.87473013
5197.8198362
5198.80473918
5199.82487777
5200.87596628
5201.95299941
5203.04953937
5204.1589152
5205.27388758
5206.38659814
5207.48897543
5208.57241372
5209.62863928
5210.64879671
5211.62498917
5212.54908499
5213.41328035
5214.21290344
5214.93581862
5215.59137814
5216.14441032
5216.65036153
5216.99389614
5217.31428011
5186.91977378
5187.22056856
5187.49433304
5187.89631523
5188.31352946
5188.79907397
5189.33044191
5189.91745013
5190.55945864
5191.2575765
5192.01387869
5192.82822672
5193.70142744
5194.63251755
5195.62049977
5196.66315258
5197.75775452
5198.9007532
5200.08690485
5201.31077415
5202.56730976
5203.85005486
5205.15139973
5206.46327779
5207.7771423
5209.08383455
5210.37410566
5211.63818048
5212.86666047
5214.04963209
5215.17813416
5216.24311855
5217.23565801
5218.15060836
5218.97431086
5219.71680855
5220.34002534
5220.90267475
5221.28356642
5221.62584576
5185.96718147
5186.28190801
5186.58354572
5187.03233171
5187.5103462
5188.07305726
5188.69585984
5189.38878997
5190.15018018
5190.9805609
5191.88114051
5192.85091719
5193.88974677
5194.99565578
5196.16658501
5197.39921052
5198.68972147
5200.03346866
5201.42348734
5202.85388796
5204.31842754
5205.80884819
5207.31630997
5208.83152627
5210.3447391
5211.84562946
5213.32376007
5214.76821547
5216.16847391
5217.51357177
5218.79347191
5219.9982273
5221.11780379
5222.1466039
5223.06943783
5223.8970912
5224.58857688
5225.20594058
5225.62230229
5225.98475188
5185.03325849
5185.36209373
5185.69220543
5186.18847421
5186.7284155
5187.36965269
5188.08546761
5188.88608598
5189.7687815
5190.73347018
5191.78045297
5192.90782333
5194.1144462
5195.39730671
5196.75326224
5198.17786287
5199.66621328
5201.21208732
5202.80721655
5204.44511976
5206.11797994
5207.81601067
5209.52925709
5211.2472314
5212.9589668
5214.65295664
5216.31759873
5217.94083369
5219.51105825
5221.01626733
5222.44537878
5223.78758776
5225.03178168
5226.17195115
5227.19137768
5228.10165
5228.85888051
5229.52848742
5229.97813513
5230.3588586
5184.12511877
5184.46786827
5184.82677478
5185.37085278
5185.97333622
5186.69384471
5187.50362723
5188.41301672
5189.41819705
5190.51842512
5191.71305388
5192.99923008
5194.37477919
5195.83558807
5197.37736658
5198.99445608
5200.68086375
5202.42841809
5204.22845211
5206.07322638
5207.95323055
5209.85743731
5211.77476243
5213.69348667
5215.60143768
5217.48594149
5219.33425997
5221.13324346
5222.87022951
5224.53221855
5226.10714456
5227.58337509
5228.94875237
5230.19689846
5231.30959103
5232.29924992
5233.11912969
5233.83804077
5234.31846113
5234.71542009
5183.24918638
5183.60592861
5183.99353314
5184.58540627
5185.25047804
5186.05038602
5186.95435588
5187.97277651
5189.10072306
5190.33674356
5191.6791975
5193.12423413
5194.66858988
5196.3070076
5198.03401432
5199.84269642
5201.72594824
5203.67362147
5205.6768974
5207.72633924
5209.81086858
5211.91836184
5214.03655726
5216.15250838
5218.25287456
5220.32384141
5222.35160191
5224.32196324
5226.22123998
5228.03549687
5229.75173583
5231.35755154
5232.83976622
5234.19169003
5235.39363853
5236.45887274
5237.33783931
5238.102731
5238.61118275
5239.02221859
5182.4092547
5182.77978208
5183.19599485
5183.83550815
5184.5630014
5185.44206861
5186.43992447
5187.56697875
5188.81718941
5190.18835939
5191.6778255
5193.28070014
5194.9925958
5196.80707876
5198.71747018
5200.71557872
5202.79306656
5204.93807052
5207.14133545
5209.39175567
5211.67676473
5213.98319735
5216.29758731
5218.60580528
5220.89338
5223.14542654
5225.34710372
5227.48322297
5229.5391613
5231.50009133
5233.35212897
5235.0821544
5236.67605655
5238.12682378
5239.41336391
5240.5498273
5241.48389756
5242.29110294
5242.82462866
5243.24743354
5181.60989501
5181.99392398
5182.43837545
5183.12489516
5183.9141172
5184.87147737
5185.96223456
5187.19676148
5188.56789313
5190.07264707
5191.70731174
5193.4659274
5195.34295403
5197.33075692
5199.42141953
5201.60549943
5203.87317558
5206.21141171
5208.6099894
5211.05627808
5213.53634591
5216.03597716
5218.54052154
5221.03470252
5223.50299861
5225.92949573
5228.29837419
5230.59350683
5232.79941896
5234.9004566
5236.88190177
5238.72998047
5240.42969172
5241.97377736
5243.33977091
5244.54267411
5245.52758012
5246.37321203
5246.92881591
5247.36104844
5180.8547043
5181.25183394
5181.72396123
5182.45650645
5183.3063153
5184.34052779
5185.52253265
5186.86260464
5188.35246262
5189.98830113
5191.76533989
5193.67651858
5195.71512396
5197.87230194
5200.13885924
5202.50417282
5204.95667366
5207.48268654
5210.07056529
5212.70628174
5215.37466432
5218.06045181
5220.74782047
5223.42044317
5226.06178581
5228.65496844
5231.18325092
5233.62965937
5235.97792452
5238.21163252
5240.31531246
5242.27459031
5244.07363181
5245.70496639
5247.14482944
5248.40901908
5249.440207
5250.32012778
5250.89462865
5251.33404319
5180.14712833
5180.55683352
5181.05581699
5181.83299186
5182.74175632
5183.85077828
5185.12169535
5186.56461299
5188.1701519
5189.93364767
5191.84923785
5193.9087389
5196.10425167
5198.42569016
5200.86255663
5203.4031107
5206.03388017
5208.74089078
5211.51079512
5214.3282493
5217.17698894
5220.04066996
5222.90238941
5225.74481681
5228.55047076
5231.3015563
5233.9805273
5236.56961718
5239.05183128
5241.410046
5243.62815703
5245.69123832
5247.58267733
5249.29482578
5250.80270178
5252.12285847
5253.19569632
5254.10569822
5254.69596899
5255.14036578
5179.48951972
5179.91113339
5180.43596889
5181.25600879
5182.22166832
5183.40290276
5184.75976061
5186.30209347
5188.01945608
5189.90629051
5191.95564937
5194.15820993
5196.5048782
5198.98434078
5201.58479164
5204.29334951
5207.0947858
5209.97474152
5212.91819389
5215.9085587
5218.92855417
5221.96078604
5224.987339
5227.98994234
5230.95021937
5233.84956989
5236.66970217
5239.39213626
5241.99920467
5244.47318815
5246.79737535
5248.95636039
5250.93285157
5252.71901953
5254.28878284
5255.65935767
5256.76908573
5257.70491493
5258.3077795
5258.7550388
5178.88480707
5179.3175065
5179.86686824
5180.72754485
5181.74751755
5182.99775451
5184.43690714
5186.07447669
5187.8989932
5189.90396857
5192.08137805
5194.42074593
5196.91178463
5199.54196535
5202.29819328
5205.16638647
5208.12981556
5211.17352025
5214.28097133
5217.43436158
5220.61549671
5223.80597289
5226.98691597
5230.13918031
5233.24360816
5236.28085471
5239.23194685
5242.0777576
5244.8000624
5247.38060718
5249.80215564
5252.04884837
5254.10284561
5255.95611747
5257.58160819
5258.9970607
5260.13905475
5261.09656757
5261.70914537
5262.15721671
5178.33397638
5178.77673173
5179.34919658
5180.24794354
5181.31931299
5182.63487837
5184.15214115
5185.88013937
5187.80643302
5189.9235701
5192.22246705
5194.69148713
5197.31916794
5200.09177364
5202.9949852
5206.01340723
5209.12917868
5212.32646124
5215.5873707
5218.8929943
5222.22427075
5225.56182594
5228.8859192
5232.17662736
5235.41407173
5238.57822632
5241.64951546
5244.60825848
5247.4357633
5250.11327758
5252.62314103
5254.9490961
5257.07282416
5258.98610212
5260.66104742
5262.11578085
5263.28539308
5264.26052705
5264.8799783
5265.32719725
5177.83988894
5178.29145813
5178.88527212
5179.81901184
5180.93831298
5182.31494399
5183.9054893
5185.71841015
5187.74035299
5189.96286507
5192.3758304
5194.9664472
5197.72211037
5200.62788609
5203.66832033
5206.82662602
5210.08408511
5213.42382833
5216.82676201
5220.27295311
5223.74253389
5227.21522084
5230.67051334
5234.08777907
5237.44649042
5240.72601534
5243.90627887
5246.96712022
5249.88944019
5252.65406075
5255.24300633
5257.63967358
5259.82535054
5261.79160689
5263.5099057
5264.99851789
5266.19148082
5267.18029023
5267.80416826
5268.24874052
5177.40211949
5177.86091051
5178.47432989
5179.43976341
5180.60334005
5182.03649763
5183.695157
5185.58706967
5187.69803287
5190.0185603
5192.53754104
5195.24101238
5198.11527775
5201.14421974
5204.31136564
5207.59846271
5210.98622168
5214.45661603
5217.98945748
5221.56392862
5225.15938885
5228.75474143
5232.32881175
5235.8603214
5239.32817903
5242.71123125
5245.98898427
5249.1408512
5252.14740865
5254.98912572
5257.64780105
5260.10650644
5262.3462725
5264.35845279
5266.11403458
5267.63126119
5268.84350192
5269.8425015
5270.46869204
5270.90948565
5177.0235541
5177.48794249
5178.11858632
5179.11212348
5180.31579893
5181.80039785
5183.52136818
5185.48564894
5187.67824806
5190.08861712
5192.704703
5195.51138812
5198.49395516
5201.63511952
5204.91749916
5208.32138004
5211.82709935
5215.41541356
5219.06518557
5222.75480379
5226.46292032
5230.16773611
5233.84746116
5237.48025643
5241.04455714
5244.51877543
5247.88206848
5251.11348407
5254.19339245
5257.10196686
5259.82086517
5262.33287721
5264.61893797
5266.67013918
5268.45723036
5269.99807681
5271.225984
5272.23156345
5272.85837803
5273.29343166
5176.7031194
5177.17085493
5177.81642977
5178.83431657
5180.07397811
5181.60499676
5183.38250929
5185.41253417
5187.67931008
5190.17121057
5192.87529097
5195.77530571
5198.85559906
5202.09776948
5205.483613
5208.99204422
5212.60315154
5216.29647663
5220.05005442
5223.84160706
5227.64912757
5231.45019039
5235.22249555
5238.94371928
5242.59188865
5246.14504393
5249.5820868
5252.88175553
5256.02429279
5258.98960719
5261.75933431
5264.3160272
5266.64064152
5268.72405167
5270.53696671
5272.09679085
5273.3372323
5274.34694705
5274.97369058
5275.40246541
5176.44126992
5176.91040124
5177.56850198
5178.60700628
5179.87806731
5181.44989935
5183.27733169
5185.36549023
5187.69788956
5190.26183183
5193.0435733
5196.0257688
5199.19192141
5202.52258674
5205.99875014
5209.59824916
5213.30083626
5217.08497363
5220.92798641
5224.80701238
5228.69949239
5232.58244817
5236.43315479
5240.22888186
5243.94735879
5247.56631208
5251.06447444
5254.42034456
5257.61412862
5260.62553638
5263.43632677
5266.02886646
5268.38429527
5270.49323164
5272.32664066
5273.90105673
5275.1511592
5276.16223196
5276.78822997
5277.20844239
5176.24128069
5176.70885515
5177.37657496
5178.43188524
5179.73014031
5181.33802474
5183.2096703
5185.34940566
5187.73983172
5190.36726355
5193.21718039
5196.27122457
5199.51216484
5202.91963268
5206.47386108
5210.1518331
5213.93290292
5217.79466297
5221.71379346
5225.66694292
5229.63105642
5233.58272501
5237.49884227
5241.35632575
5245.13269976
5248.80544029
5252.35316221
5255.7541768
5258.98871902
5262.03633793
5264.87894369
5267.49882771
5269.87730043
5272.00495631
5273.8530529
5275.4375227
5276.69465387
5277.70569036
5278.33202697
5278.74325557
5176.09026264
5176.55462043
5177.2300943
5178.29939919
5179.62007841
5181.25798795
5183.16620919
5185.34861443
5187.78700165
5190.46676297
5193.37277727
5196.48571547
5199.78775517
5203.25769871
5206.87503867
5210.61627855
5214.46030082
5218.38389854
5222.36328681
5226.37470405
5230.39470234
5234.39952149
5238.36577311
5242.27011179
5246.08993123
5249.80252358
5253.38649376
5256.81999759
5260.08343907
5263.15625244
5266.02068548
5268.65898295
5271.05291383
5273.1931423
5275.05127146
5276.64281379
5277.90531259
5278.9154738
5279.54267688
5279.94421181
5176.01289804
5176.47167685
5177.151459
5178.23216278
5179.57218216
5181.23708347
5183.17744038
5185.39725204
5187.87682677
5190.60110083
5193.554203
5196.71615557
5200.06861467
5203.58978211
5207.25853782
5211.0510299
5214.94558674
5218.91855977
5222.94573388
5227.00298002
5231.06653921
5235.11235755
5239.11682905
5243.05639415
5246.90831602
5250.64980668
5254.25948185
5257.7154204
5260.99812663
5264.08700824
5266.96443699
5269.6127903
5272.01375932
5274.1586612
5276.01894181
5277.61084827
5278.87306086
5279.87818748
5280.50579981
5280.89477594
5175.95104913
5176.4025135
5177.08665403
5178.17752014
5179.5315939
5181.21577624
5183.17832453
5185.42376977
5187.93160615
5190.68626733
5193.6715435
5196.8667985
5200.25338075
5203.8089122
5207.5118597
5211.33828706
5215.26606675
5219.2709807
5223.32867332
5227.41476717
5231.50530747
5235.57601967
5239.6031699
5243.56314399
5247.43310072
5251.19016048
5254.81309306
5258.27989637
5261.57132461
5264.6667012
5267.54883726
5270.20013706
5272.60277393
5274.74853443
5276.60926557
5278.20220835
5279.46599831
5280.47128575
5281.099965
5281.47928707
5175.98385403
5176.43143155
5177.1244432
5178.22507635
5179.59353906
5181.29521958
5183.27576748
5185.54115677
5188.06908952
5190.84476035
5193.85115482
5197.06780532
5200.47568454
5204.05231136
5207.77589394
5211.62216931
5215.5690468
5219.59206027
5223.66660758
5227.76815718
5231.87268554
5235.95582748
5239.99374424
5243.96275967
5247.84011743
5251.60292275
5255.22996764
5258.69938129
5261.99195339
5265.08723355
5267.96780639
5270.616604
5273.01493107
5275.15565777
5277.00897513
5278.59389845
5279.84877504
5280.84257412
5281.46236234
5281.82733867
5035.60132018
5035.5576611
5035.38625365
5035.15321658
5034.82428535
5034.41217092
5033.91928387
5033.34550192
5032.70043192
5031.98509136
5031.20877854
5030.37542178
5029.4933434
5028.56840586
5027.60837625
5026.6200384
5025.61082888
5024.58783259
5023.55815432
5022.52897533
5021.50564383
5020.49560083
5019.50573038
5018.5414554
5017.60861931
5016.71246856
5015.85838512
5015.05083275
5014.29501281
5013.59429884
5012.95410311
5012.37628113
5011.86667884
5011.42566126
5011.05798172
5010.76578419
5010.5442193
5010.41140135
5010.32466581
5010.34726713
5035.56517121
5035.56852369
5035.430742
5035.22108738
5034.91102359
5034.51467433
5034.03613991
5033.47569384
5032.84362245
5032.14123375
5031.37806904
5030.5582733
5029.69023218
5028.77988984
5027.83499441
5026.86231652
5025.86924265
5024.86278262
5023.84999662
5022.83791245
5021.83193273
5020.83912225
5019.86654055
5018.91934303
5018.00326962
5017.12344125
5016.28507641
5015.49247202
5014.75060909
5014.06261481
5013.43365974
5012.86518687
5012.36280397
5011.92602933
5011.55978038
5011.26420172
5011.03587751
5010.8878772
5010.78712109
5010.79961894
5035.38817128
5035.4238273
5035.31510898
5035.13041933
5034.84179423
5034.46500943
5034.00520046
5033.46365331
5032.8507332
5032.16839929
5031.42603547
5030.62810922
5029.7828833
5028.89642458
5027.97639011
5027.02954423
5026.0631764
5025.08420109
5024.09956005
5023.11605827
5022.13926916
5021.17584286
5020.23255114
5019.31454432
5018.42727531
5017.57567173
5016.76467417
5015.99838855
5015.281462
5014.61688517
5014.00933918
5013.46023163
5012.97469281
5012.55218013
5012.19736375
5011.9093573
5011.68593712
5011.53665288
5011.43675439
5011.45471115
5035.14951229
5035.20664486
5035.12251377
5034.96614205
5034.70498885
5034.35629151
5033.92479845
5033.41262473
5032.82999276
5032.17949157
5031.47038694
5030.70749175
5029.89895597
5029.05095752
5028.17102824
5027.26588334
5026.34265466
5025.40809514
5024.46896235
5023.53177104
5022.60205513
5021.68594174
5020.78988168
5019.91887105
5019.07795705
5018.27172302
5017.50470109
5016.78062499
5016.10366492
5015.47645563
5014.90315913
5014.38485504
5013.92616397
5013.52622842
5013.18964352
5012.91518491
5012.70209679
5012.55996874
5012.46924332
5012.50142191
5034.80661142
5034.88126074
5034.81806345
5034.68885229
5034.45569957
5034.13747012
5033.73802795
5033.26030989
5032.71422065
5032.10285374
5031.43524492
5030.71644552
5029.95442385
5029.15538612
5028.32668167
5027.47491012
5026.60698545
5025.72944054
5024.84876523
5023.97110954
5023.10187589
5022.24677602
5021.41171947
5020.60146134
5019.82059576
5019.07327612
5018.3635577
5017.69474492
5017.0704793
5016.49301258
5015.96595002
5015.49012593
5015.06960495
5014.70346254
5014.39585938
5014.14579274
5013.95240369
5013.82667417
5013.74879225
5013.79481305
5034.3773512
5034.46655914
5034.4223933
5034.32073233
5034.11788827
5033.83440204
5033.47279191
5033.03660731
5032.53530396
5031.97228505
5031.35633952
5030.69262733
5029.98890924
5029.25133164
5028.48701465
5027.7023685
5026.90402805
5026.09823406
5025.29113079
5024.48845181
5023.69532617
5022.91697486
5022.15870328
5021.42488823
5020.71959864
5020.0464564
5019.4089489
5018.80984935
5018.25220373
5017.73778534
5017.26960264
5016.84815718
5016.47695775
5016.15506125
5015.88613754
5015.66991246
5015.50469356
5015.40418571
5015.34493822
5015.40824606
5033.86324633
5033.96601032
5033.94007996
5033.86620103
5033.69522511
5033.44946678
5033.12997698
5032.74083566
5032.29099002
5031.78401246
5031.22839689
5030.62929002
5029.99419527
5029.3291078
5028.64086217
5027.93560255
5027.21961998
5026.49879156
5025.77883862
5025.06502028
5024.36207337
5023.67469409
5023.00753377
5022.36445921
5021.74894919
5021.16401608
5020.61251098
5020.09660148
5019.61868852
5019.18000538
5018.7829349
5018.42759697
5018.11689176
5017.84982073
5017.62932468
5017.45586397
5017.32611311
5017.25645155
5017.21830009
5017.29750247
5033.26635613
5033.38174875
5033.37433548
5033.32930567
5033.19263527
5032.98832581
5032.7159136
5032.37989684
5031.98867686
5031.54586535
5031.05963369
5030.53500897
5029.97919643
5029.39795554
5028.79777996
5028.18447189
5027.56391223
5026.94153948
5026.32257982
5025.71175475
5025.11329818
5024.53130829
5023.96973505
5023.43182257
5022.92038181
5022.43773596
5021.98602496
5021.5667288
5021.18153816
5020.83106171
5020.51700324
5020.23901713
5019.99934464
5019.79688379
5019.63370146
5019.51106398
5019.42352392
5019.39052046
5019.37687568
5019.47387639
5032.59766624
5032.72557169
5032.73695856
5032.72186186
5032.62167055
5032.46217052
5032.24135263
5031.9640697
5031.63814657
5031.26712736
5030.85882215
5030.41804131
5029.9516394
5029.46505639
5028.96438448
5028.45500885
5027.94233319
5027.43128364
5026.92651981
5026.4321562
5025.95182772
5025.48896486
5025.04676678
5024.62775942
5024.23400864
5023.86707304
5023.52831312
5023.21844777
5022.93839659
5022.68806774
5022.46843167
5022.2785933
5022.12006271
5021.99153392
5021.89406858
5021.82958628
5021.7902799
5021.79823733
5021.81166451
5021.92593736
5031.85986051
5032.00031853
5032.03152182
5032.04806686
5031.98710635
5031.87617574
5031.71173938
5031.49894952
5031.24504208
5030.95341321
5030.63148062
5030.28375899
5029.91670494
5029.53536318
5029.14536466
5028.75160599
5028.35894761
5027.97173167
5027.59397931
5027.2291242
5026.88011548
5026.54964499
5026.24010532
5025.95321849
5025.69022752
5025.4518511
5025.23859906
5025.05035361
5024.8871956
5024.74825149
5024.6336909
5024.54197723
5024.47381048
5024.42757993
5024.40322801
5024.40325433
5024.41729517
5024.47012181
5024.51288834
5024.64534567
5031.06407654
5031.21739047
5031.26926067
5031.31907811
5031.29990607
5031.24111455
5031.13761798
5030.99483607
5030.81938791
5030.61445032
5030.38700797
5030.14120445
5029.88304448
5029.61710528
5029.34849304
5029.08154375
5028.82050654
5028.56906863
5028.33054359
5028.10760981
5027.90244679
5027.71694185
5027.5526241
5027.41033257
5027.29041382
5027.19267685
5027.11671327
5027.061496
5027.02620559
5027.00911342
5027.00952303
5027.02517334
5027.05588246
5027.09963626
5027.15517426
5027.22545911
5027.29750376
5027.39850689
5027.47271591
5027.62338289
5030.21593467
5030.38256389
5030.45630677
5030.54138332
5030.56685066
5030.56393706
5030.52599961
5030.45870363
5030.36802942
5030.25688161
5030.13177493
5029.99641707
5029.85630867
5029.71549267
5029.57848938
5029.44900494
5029.33060968
5029.22626591
5029.13851202
5029.0691956
5029.01964988
5028.99089662
5028.98354209
5028.9974684
5029.03205509
5029.0861345
5029.15831638
5029.2465962
5029.34918941
5029.4634408
5029.58772176
5029.71896541
5029.85603498
5029.99643265
5030.13762436
5030.28295941
5030.41675612
5030.56866111
5030.67585365
5030.8451878
5029.32551837
5029.50600009
5029.60268954
5029.72491004
5029.79771032
5029.85424098
5029.88626973
5029.8996931
5029.89981898
5029.889229
5029.87392375
5029.85711257
5029.84373611
5029.83723654
5029.84148479
5029.85948912
5029.89407458
5029.94741079
5030.02119104