/*--------------------------------*- C++ -*----------------------------------*\
| =========                 |                                                 |
| \\      /  F ield         | foam-extend: Open Source CFD                    |
|  \\    /   O peration     | Version:     4.1                                |
|   \\  /    A nd           | Web:         http://www.foam-extend.org         |
|    \\/     M anipulation  |                                                 |
\*---------------------------------------------------------------------------*/
FoamFile
{
    version     2.0;
    format      ascii;
    class       volScalarField;
    location    "1";
    object      pd;
}
// * * * * * * * * * * * * * * * * * * * * * * * * * * * * * * * * * * * * * //

dimensions      [1 -1 -2 0 0 0 0];

internalField   nonuniform List<scalar> 
96000
(
5280.42210817
5280.39724577
5280.24119731
5280.02166266
5279.70342777
5279.30059643
5278.815443
5278.24868615
5277.610043
5276.90094068
5276.13073388
5275.30354269
5274.4277295
5273.50920582
5272.55574686
5271.57410765
5270.57171113
5269.55561582
5268.53302576
5267.51062574
5266.4942043
5265.49099242
5264.50805728
5263.55048101
5262.62420091
5261.73441868
5260.88647817
5260.0847939
5259.33449644
5258.63890492
5258.00333296
5257.42954987
5256.92314085
5256.48437747
5256.11745337
5255.82431182
5255.59897763
5255.45883369
5255.35974464
5255.36431616
5280.40323576
5280.43537169
5280.31630996
5280.12792165
5279.83268708
5279.44892082
5278.9798781
5278.42726196
5277.80146397
5277.1045328
5276.34624579
5275.53103929
5274.66744652
5273.76151753
5272.82105087
5271.85283927
5270.86427658
5269.86236363
5268.85424191
5267.84662234
5266.84510665
5265.85675365
5264.88871639
5263.94587927
5263.03408071
5262.15840241
5261.32404015
5260.53525251
5259.79695416
5259.11220564
5258.48609368
5257.92000468
5257.41919432
5256.98320097
5256.61616172
5256.31880198
5256.0860714
5255.93350594
5255.81863778
5255.80647137
5280.24072776
5280.30881772
5280.21866653
5280.05736331
5279.78541078
5279.42320593
5278.97431817
5278.4416754
5277.83562544
5277.15890772
5276.42117854
5275.62732726
5274.7858194
5273.9028996
5272.98631459
5272.04288357
5271.07992004
5270.10434592
5269.12312309
5268.14298889
5267.16949266
5266.20940357
5265.26941775
5264.35461736
5263.47048752
5262.62193358
5261.81388008
5261.0504005
5260.33610723
5259.6739266
5259.06831783
5258.52057333
5258.03542322
5257.61237545
5257.25524856
5256.96410929
5256.7347565
5256.58068645
5256.46390512
5256.45303121
5280.01509294
5280.11332195
5280.04991723
5279.91913796
5279.67589194
5279.34305004
5278.92342275
5278.42084523
5277.84538958
5277.20050075
5276.49574882
5275.73640963
5274.93089353
5274.08559345
5273.20816935
5272.30541395
5271.38450398
5270.45221196
5269.51531383
5268.58033976
5267.65275639
5266.73874592
5265.84475853
5264.97574808
5264.13677372
5263.33240557
5262.56715982
5261.84473497
5261.16925094
5260.5432797
5259.97081666
5259.45285654
5258.99361118
5258.5923653
5258.25279856
5257.9748363
5257.75521515
5257.60745539
5257.49586109
5257.49008223
5279.68265477
5279.80288822
5279.76218407
5279.65983922
5279.44523767
5279.14346862
5278.75627789
5278.28840265
5277.74950121
5277.14354188
5276.47984515
5275.76396286
5275.00415096
5274.20687022
5273.37962594
5272.52911989
5271.66232873
5270.78581935
5269.90610909
5269.0293747
5268.16098664
5267.30667873
5266.47237638
5265.66281687
5264.88260428
5264.13589139
5263.4267264
5262.75839091
5262.13447834
5261.55718362
5261.02995086
5260.55356431
5260.1316794
5259.7635813
5259.45244677
5259.19851052
5258.99804652
5258.86619148
5258.76575422
5258.77249886
5279.26264641
5279.40083598
5279.38124016
5279.30767259
5279.12398555
5278.85742039
5278.50828481
5278.0820268
5277.58777989
5277.02984563
5276.41728904
5275.75579663
5275.05343999
5274.31665114
5273.55272991
5272.76820905
5271.96980126
5271.1637949
5270.35637405
5269.55330576
5268.75970976
5267.9808121
5267.22194744
5266.4874948
5265.78153435
5265.10769651
5264.4694703
5263.86961723
5263.31114353
5262.79578295
5262.32639424
5261.90345673
5261.53007116
5261.20554771
5260.93250493
5260.71197858
5260.53913589
5260.4321022
5260.34945649
5260.37373168
5278.75636855
5278.90960859
5278.90984461
5278.86483732
5278.71338602
5278.48474992
5278.17771074
5277.79832927
5277.35517357
5276.85273974
5276.29978796
5275.70201722
5275.06725852
5274.4018177
5273.7127288
5273.00628038
5272.2888555
5271.56639177
5270.8446621
5270.12896643
5269.42404781
5268.7346103
5268.06533963
5267.4201204
5266.80244928
5266.21535845
5265.66171064
5265.14367701
5264.66362696
5264.22277279
5263.82335843
5263.46551241
5263.15173456
5262.88133952
5262.65616561
5262.47810377
5262.34060172
5262.26495703
5262.20448718
5262.24821664
5278.16669574
5278.33304101
5278.35289948
5278.33727717
5278.22034416
5278.03320128
5277.77306061
5277.44647679
5277.06143182
5276.62248267
5276.13806216
5275.61377568
5275.05717151
5274.47433963
5273.87199041
5273.25609018
5272.63262737
5272.00711515
5271.38483891
5270.77056423
5270.16854717
5269.58290226
5269.01761793
5268.4759695
5267.96079548
5267.47444655
5267.01908675
5266.59621548
5266.20750624
5265.85356869
5265.53598563
5265.25445865
5265.01082457
5264.80435782
5264.63602006
5264.50867609
5264.41362359
5264.37577659
5264.3420078
5264.40818847
5277.504601
5277.68294712
5277.72208996
5277.73655675
5277.65604234
5277.51352032
5277.30457773
5277.03619335
5276.71572741
5276.34769861
5275.9401739
5275.49856492
5275.03008384
5274.54052113
5274.03619885
5273.52268319
5273.00549878
5272.48966061
5271.97989569
5271.48036837
5270.99474859
5270.5264938
5270.0788501
5269.65438512
5269.25520298
5268.88290183
5268.53887571
5268.22387868
5267.93883191
5267.6836723
5267.45926663
5267.26481374
5267.10143758
5266.96828755
5266.8653235
5266.79628242
5266.75016664
5266.75512878
5266.7517901
5266.84144993
5276.77318603
5276.96290918
5277.02185222
5277.06778393
5277.02619335
5276.93183966
5276.77868875
5276.57408371
5276.32474537
5276.03507966
5275.71275496
5275.36290891
5274.99236358
5274.60653954
5274.21130963
5273.81176302
5273.41289072
5273.01913495
5272.63459821
5272.26277521
5271.90665361
5271.56896465
5271.25215956
5270.95801109
5270.68781101
5270.44233299
5270.22213319
5270.02714164
5269.8574636
5269.7122851
5269.59169504
5269.49430558
5269.42046104
5269.36910593
5269.33910197
5269.33498829
5269.3433047
5269.39547965
5269.42559801
5269.54034182
5275.98361386
5276.18451747
5276.26364873
5276.34237236
5276.34200334
5276.29916853
5276.20616552
5276.07067018
5275.89872951
5275.69456939
5275.46541609
5275.21605688
5274.95286963
5274.68082483
5274.40528514
5274.13079043
5273.86172961
5273.60189892
5273.3547066
5273.12290058
5272.908712
5272.71407616
5272.54059127
5272.38915822
5272.2601822
5272.15353965
5272.068887
5272.00526804
5271.96189946
5271.93714665
5271.93026524
5271.93920153
5271.96345868
5272.0016923
5272.05159852
5272.11837306
5272.18608474
5272.28913293
5272.35528437
5272.49583193
5275.141673
5275.35383858
5275.45404932
5275.5672878
5275.61077061
5275.62300244
5275.59459118
5275.53352286
5275.44514943
5275.3334593
5275.20519867
5275.06474179
5274.9179688
5274.76932997
5274.62361168
5274.48473624
5274.35642587
5274.24176484
5274.14339129
5274.06323151
5274.00268535
5273.96283382
5273.94436329
5273.94722569
5273.97087168
5274.01421348
5274.07593995
5274.15414326
5274.24709603
5274.35227489
5274.46803731
5274.59158813
5274.72152186
5274.85612032
5274.99182205
5275.13446939
5275.26554404
5275.42239572
5275.52645849
5275.69350494
5274.2574605
5274.48114556
5274.60326451
5274.75269736
5274.84253406
5274.91323255
5274.95366429
5274.97211441
5274.97320359
5274.96063081
5274.9406175
5274.91706236
5274.89529047
5274.87916428
5274.87282975
5274.87952222
5274.90223022
5274.94325998
5275.0044142
5275.08671692
5275.19066586
5275.31643811
5275.46374921
5275.6315282
5275.81820937
5276.02168255
5276.23960828
5276.46906286
5276.70732712
5276.95093727
5277.19729862
5277.44281377
5277.68507256
5277.92192525
5278.14851592
5278.37126286
5278.56901989
5278.78201161
5278.92546834
5279.11919997
5273.33846865
5273.57403861
5273.71910042
5273.90656221
5274.04535226
5274.17792063
5274.29136457
5274.39425978
5274.49045906
5274.58333065
5274.67852762
5274.77941336
5274.89070228
5275.01560567
5275.15756684
5275.31906919
5275.50230094
5275.70872272
5275.93923567
5276.19388716
5276.4722122
5276.77344188
5277.09625393
5277.43849124
5277.79752027
5278.17015573
5278.55296961
5278.94193476
5279.33330214
5279.72262502
5280.10635333
5280.48004623
5280.84023914
5281.18428211
5281.50595866
5281.8122212
5282.07921076
5282.35003102
5282.53370693
5282.75416451
5272.39392438
5272.64178586
5272.81076768
5273.03801029
5273.22820728
5273.42585647
5273.61623587
5273.80820232
5274.00479814
5274.20901963
5274.42590474
5274.65822128
5274.91001765
5275.18379061
5275.48221801
5275.80696829
5276.15936448
5276.53995842
5276.94868217
5277.38452407
5277.84601682
5278.33142562
5278.83830063
5279.3633121
5279.90275303
5280.4523691
5281.00763364
5281.5633284
5282.11459704
5282.65594582
5283.18266103
5283.68927683
5284.17132896
5284.6258842
5285.04534979
5285.43725941
5285.77484836
5286.10446795
5286.32861828
5286.57514477
5271.43185895
5271.69242674
5271.88632947
5272.15507563
5272.39904458
5272.66482213
5272.93582186
5273.22116979
5273.52305484
5273.84406351
5274.18856697
5274.55868547
5274.95774391
5275.38746487
5275.84969815
5276.34523158
5276.87446555
5277.4369931
5278.03169474
5278.65641788
5279.30868926
5279.98584749
5280.68424502
5281.39923906
5282.1260139
5282.85893929
5283.59209951
5284.3193924
5285.03511878
5285.7327106
5286.40635945
5287.0497686
5287.65744689
5288.2257874
5288.74560528
5289.22499206
5289.63445317
5290.02332392
5290.28806674
5290.56046532
5270.46071898
5270.734385
5270.95413163
5271.26596035
5271.56585681
5271.90253561
5272.25749965
5272.64012845
5273.05171415
5273.49439252
5273.97181743
5274.48540883
5275.03771065
5275.62961261
5276.26207676
5276.93494954
5277.64765834
5278.39880623
5279.18612556
5280.00625194
5280.85568596
5281.73058967
5282.62573758
5283.53561865
5284.45430833
5285.37512946
5286.29116864
5287.19507817
5288.07977169
5288.93756601
5289.76160301
5290.54472143
5291.28025515
5291.96401255
5292.58534743
5293.15295522
5293.63455388
5294.08237266
5294.38708117
5294.68407939
5269.48835952
5269.77545418
5270.02186762
5270.37819288
5270.73593989
5271.14599261
5271.58789217
5272.07125007
5272.5964175
5273.16503675
5273.77999559
5274.44196211
5275.15264319
5275.91203689
5276.72016208
5277.57586174
5278.47750418
5279.42261106
5280.40751578
5281.42765658
5282.4787453
5283.55577885
5284.65232034
5285.76169862
5286.8766707
5287.98937674
5289.09174942
5290.17519362
5291.23142513
5292.25156829
5293.22774224
5294.1518381
5295.01603814
5295.81565966
5296.53856532
5297.1941203
5297.74714347
5298.25307226
5298.5965878
5298.91701267
5268.52249489
5268.82329165
5269.09708162
5269.49908446
5269.91631
5270.40184618
5270.93320349
5271.52020188
5272.16220867
5272.86032967
5273.61663589
5274.43098639
5275.30418936
5276.23528196
5277.22326856
5278.26592624
5279.36052892
5280.50352828
5281.6896811
5282.91355135
5284.17008772
5285.45283346
5286.75417899
5288.06606169
5289.37992985
5290.68660807
5291.97687695
5293.24095246
5294.46944321
5295.65239378
5296.7808866
5297.84587944
5298.83841693
5299.75335623
5300.57705855
5301.31955989
5301.94275624
5302.50538062
5302.88628241
5303.22857338
5267.56990206
5267.88463126
5268.18629424
5268.63510103
5269.11312773
5269.67583007
5270.29862178
5270.99154132
5271.75293041
5272.58331467
5273.48389903
5274.45367692
5275.49250843
5276.59842166
5277.76935443
5279.00198199
5280.29249574
5281.63624555
5283.02626458
5284.45666485
5285.92120488
5287.41162619
5288.91909089
5290.43430675
5291.94751882
5293.44840791
5294.92653346
5296.37098927
5297.7712454
5299.11633359
5300.39622645
5301.60098292
5302.72055698
5303.74935105
5304.67218856
5305.49984124
5306.19130512
5306.80863932
5307.22498558
5307.58746877
5266.63597695
5266.96481664
5267.29495389
5267.79124371
5268.33119824
5268.97242628
5269.68823013
5270.48883742
5271.37153224
5272.33622435
5273.38321279
5274.51058421
5275.71720886
5277.00007373
5278.35603168
5279.78063409
5281.26899006
5282.81486603
5284.40999329
5286.0478966
5287.72075749
5289.41879729
5291.13203999
5292.85000836
5294.56174326
5296.25574289
5297.92039366
5299.5436079
5301.11382889
5302.61904502
5304.04814041
5305.39033428
5306.63452753
5307.7747019
5308.79411735
5309.70438166
5310.46160111
5311.13118235
5311.58081693
5311.96158147
5265.72783515
5266.07059056
5266.42952329
5266.97362258
5267.57612041
5268.29661924
5269.10639041
5270.01576872
5271.02094839
5272.12118025
5273.3158143
5274.60199257
5275.97754372
5277.43835439
5278.98013608
5280.59723164
5282.28364372
5284.03119525
5285.83122912
5287.67600376
5289.55601734
5291.46022502
5293.37754103
5295.29626357
5297.20421474
5299.08873119
5300.93705085
5302.73602218
5304.47299938
5306.13498148
5307.70990023
5309.18612094
5310.55149755
5311.79965495
5312.91233475
5313.90196577
5314.72184304
5315.4407402
5315.92114234
5316.31815623
5264.85190257
5265.20865057
5265.59628175
5266.18817639
5266.85326371
5267.65316157
5268.55711973
5269.57552903
5270.70347477
5271.93950015
5273.28195888
5274.72699739
5276.27135465
5277.90977405
5279.6367861
5281.44547571
5283.32872615
5285.27639882
5287.27967506
5289.3291246
5291.41365423
5293.52114006
5295.63933575
5297.75529619
5299.85567179
5301.92661941
5303.9543718
5305.92475802
5307.82402345
5309.6382485
5311.35448685
5312.96032094
5314.44251119
5315.79443432
5316.99640259
5318.06161424
5318.94056556
5319.70543084
5320.21386451
5320.62494782
5264.01197251
5264.38250429
5264.7987434
5265.43827855
5266.16578838
5267.04484515
5268.04268897
5269.16973167
5270.41994126
5271.79111655
5273.28058833
5274.88346395
5276.59536
5278.40984651
5280.3202448
5282.31835573
5284.39584318
5286.54084778
5288.74412064
5290.99454353
5293.27954295
5295.58597484
5297.90037106
5300.20860733
5302.4961729
5304.74819644
5306.94987289
5309.08601415
5311.14195773
5313.1028645
5314.95488306
5316.6849042
5318.27881987
5319.7295619
5321.01609777
5322.15259336
5323.0866411
5323.89379689
5324.42731124
5324.85012848
5263.21261424
5263.59664631
5264.04112378
5264.72766575
5265.51690529
5266.47425482
5267.5649997
5268.79951459
5270.17064515
5271.67540376
5273.31007612
5275.06869214
5276.94571868
5278.93352495
5281.02419391
5283.20827422
5285.4759514
5287.81419507
5290.21277701
5292.65905669
5295.13912362
5297.63875807
5300.14332336
5302.63749401
5305.1057742
5307.53227206
5309.90115855
5312.1962824
5314.40219043
5316.50324384
5318.48467879
5320.33272113
5322.03243432
5323.57650805
5324.94249744
5326.14541958
5327.13031413
5327.97591317
5328.53154865
5328.96378484
5262.45742028
5262.85455544
5263.32670926
5264.05927709
5264.90910461
5265.94330605
5267.12529838
5268.46535785
5269.95521495
5271.59105788
5273.36810454
5275.2792835
5277.31788919
5279.47507098
5281.74163098
5284.106948
5286.55945422
5289.08547114
5291.67334474
5294.30906023
5296.97744347
5299.66325322
5302.35061368
5305.02321876
5307.66456065
5310.25776814
5312.78604786
5315.23241446
5317.58067609
5319.81441198
5321.91809323
5323.87733137
5325.67636442
5327.30769874
5328.74756422
5330.01173327
5331.04292093
5331.92286745
5332.49735751
5332.93679879
5261.74984403
5262.15955401
5262.65856452
5263.43576234
5264.34454719
5265.45355725
5266.72446139
5268.1673664
5269.77290454
5271.53640568
5273.45200218
5275.51150371
5277.70701858
5280.02845916
5282.46532694
5285.00588779
5287.63666678
5290.34367098
5293.11357418
5295.93102943
5298.7797912
5301.64346512
5304.50516628
5307.34759294
5310.1532645
5312.90435231
5315.58330939
5318.17237546
5320.6546015
5323.01279345
5325.23089971
5327.29399949
5329.1854252
5330.89758511
5332.40546333
5333.72559892
5334.79840999
5335.70839936
5336.29866622
5336.74311463
5261.09223739
5261.51385349
5262.03871551
5262.85877888
5263.82446031
5265.00568222
5266.36252659
5267.90484687
5269.6222085
5271.50905003
5273.55841431
5275.76097597
5278.10764458
5280.58710801
5283.1875635
5285.89613023
5288.69757142
5291.57752171
5294.52097351
5297.51135544
5300.53135944
5303.56356786
5306.59011915
5309.59274379
5312.55301937
5315.45233446
5318.2724652
5320.994925
5323.60200085
5326.07596354
5328.40011611
5330.55911699
5332.53560126
5334.32176672
5335.89153706
5337.26211636
5338.37183356
5339.30761298
5339.91047697
5340.35777073
5260.4875245
5260.9202253
5261.46961355
5262.33031429
5263.35030939
5264.60053389
5266.03967258
5267.67722945
5269.50174498
5271.50672706
5273.68414298
5276.02351201
5278.51454855
5281.14473177
5283.90096861
5286.7691666
5289.73259223
5292.77630311
5295.88376731
5299.03715127
5302.21827992
5305.40876926
5308.58972246
5311.74198323
5314.84638548
5317.88361997
5320.83472707
5323.68055282
5326.40285706
5328.98339975
5331.40491659
5333.65157828
5335.70557112
5337.55883911
5339.18432916
5340.59980187
5341.74180388
5342.69928079
5343.31184833
5343.75994649
5259.93668503
5260.37944842
5260.95194065
5261.85071214
5262.92210369
5264.23765679
5265.7549051
5267.48289082
5269.40918245
5271.52632546
5273.82522864
5276.29424964
5278.92193012
5281.69454067
5284.59775691
5287.61617787
5290.73195433
5293.92925154
5297.19015538
5300.49576931
5303.82705276
5307.16463111
5310.48872279
5313.77940914
5317.01684564
5320.18101538
5323.25230669
5326.21102243
5329.03851863
5331.71605724
5334.22590398
5336.55180392
5338.675509
5340.58877834
5342.26374256
5343.71850575
5344.88811714
5345.86324518
5346.48270864
5346.92994403
5259.44259302
5259.89417256
5260.48801531
5261.42177964
5262.5411023
5263.91772106
5265.50825094
5267.3211582
5269.34309954
5271.56561705
5273.97858712
5276.56920552
5279.32486989
5282.2306474
5285.27108132
5288.42939192
5291.68686432
5295.0266051
5298.42953161
5301.8757271
5305.3453311
5308.81801729
5312.27328938
5315.69055151
5319.04928261
5322.3288105
5325.50904997
5328.56986054
5331.49218578
5334.25680814
5336.84573792
5339.24237896
5341.42803342
5343.39427222
5345.11258547
5346.60123128
5347.7941905
5348.78299813
5349.40689472
5349.851491
5259.00482389
5259.46362401
5260.07707241
5261.04253105
5262.2061298
5263.6392744
5265.29791761
5267.18981461
5269.30077569
5271.62130919
5274.14029519
5276.8437678
5279.71803075
5282.74697216
5285.91412289
5289.20122931
5292.58899085
5296.05938443
5299.59222639
5303.16670725
5306.76218516
5310.35752053
5313.9315777
5317.46309206
5320.93097382
5324.31400889
5327.59172871
5330.74359085
5333.75014526
5336.59183587
5339.25049326
5341.70920442
5343.94895263
5345.96112245
5347.71673473
5349.23394697
5350.44619665
5351.44520339
5352.07140972
5352.51223426
5258.62626256
5259.0906586
5259.72132906
5260.71489226
5261.91859285
5263.40317669
5265.12413072
5267.08839479
5269.28098954
5271.69136388
5274.30745861
5277.11414219
5280.09670718
5283.23787149
5286.52025898
5289.92414391
5293.42986307
5297.01818032
5300.6679713
5304.35758507
5308.06569507
5311.77051585
5315.45023886
5319.0830283
5322.64732586
5326.1215374
5329.48481315
5332.71620589
5335.79608974
5338.70466545
5341.42355698
5343.93554175
5346.22158736
5348.27282964
5350.05991728
5351.60074108
5352.82866916
5353.83426706
5354.46109297
5354.89617864
5258.30583654
5258.77357276
5259.41917394
5260.43708871
5261.67677417
5263.20777998
5264.98527539
5267.01528456
5269.2820531
5271.77396034
5274.47804892
5277.37806058
5280.45835124
5283.70052485
5287.08637379
5290.59480811
5294.20591741
5297.89924537
5301.65283019
5305.44439875
5309.25191093
5313.0529598
5316.82526391
5320.54650586
5324.19467013
5327.74780038
5331.18482343
5334.48445799
5337.62697522
5340.59229256
5343.36201996
5345.91866205
5348.24327374
5350.32673468
5352.13961758
5353.69946387
5354.93993312
5355.94964887
5356.57641136
5357.00521667
5258.04398139
5258.513119
5259.17124703
5260.20977956
5261.48086358
5263.05268439
5264.88010006
5266.96824449
5269.30063742
5271.86458263
5274.64632846
5277.62852442
5280.79467573
5284.12534186
5287.6015077
5291.20101257
5294.903608
5298.687744
5302.53075696
5306.40979218
5310.3022869
5314.18521807
5318.0359221
5321.83166571
5325.55014241
5329.16906699
5332.6671996
5336.02305492
5339.21681207
5342.2282
5345.03898702
5347.63149852
5349.98691439
5352.09585396
5353.92929135
5355.50375388
5356.75387542
5357.76494441
5358.39096076
5358.81120121
5257.84399073
5258.3115712
5258.9793179
5260.03465709
5261.33292902
5262.9408048
5264.8124354
5266.95215734
5269.34257698
5271.97001042
5274.81992996
5277.87397471
5281.11491357
5284.52238139
5288.07661342
5291.75459139
5295.53566552
5299.39742805
5303.31656302
5307.26971652
5311.23382681
5315.1854942
5319.10162694
5322.95909916
5326.73546428
5330.40818733
5333.95588337
5337.35688905
5340.59142224
5343.63901553
5346.48157991
5349.10145326
5351.47992412
5353.6075881
5355.45573266
5357.04023445
5358.29737802
5359.30842327
5359.93476559
5360.34601767
5257.69296913
5258.15732853
5258.83283073
5259.9021647
5261.22285437
5262.86075485
5264.76896233
5266.95135514
5269.38973692
5272.0694996
5274.97551546
5278.08845221
5281.3904898
5284.86043443
5288.47777857
5292.21902177
5296.06304768
5299.98665358
5303.96604756
5307.97746046
5311.99745186
5316.00228092
5319.96854905
5323.87287301
5327.69266729
5331.40524489
5334.98920806
5338.42269926
5341.68612673
5344.75892005
5347.62330991
5350.26160432
5352.65553683
5354.79580794
5356.65397057
5358.2455194
5359.50803055
5360.5181949
5361.14541235
5361.54697534
5257.61558795
5258.07437099
5258.75418275
5259.83491475
5261.17494316
5262.83983187
5264.78017307
5266.99997129
5269.47954109
5272.20381565
5275.15691849
5278.31886855
5281.67132441
5285.19249305
5288.86125191
5292.65374787
5296.54831478
5300.5212967
5304.54846642
5308.60570749
5312.66926915
5316.71510054
5320.71957868
5324.65913531
5328.51103737
5332.25250446
5335.86216317
5339.31809088
5342.60076712
5345.68962109
5348.56705061
5351.21541298
5353.61638258
5355.76129232
5357.62159536
5359.21352573
5360.47574982
5361.48088053
5362.10852442
5362.49752975
5257.55375916
5258.00521936
5258.68936706
5259.7802615
5261.13435117
5262.81851478
5264.78104535
5267.02647308
5269.53429744
5272.28895816
5275.27423536
5278.46949755
5281.85608852
5285.41161849
5289.11456463
5292.94100281
5296.86880299
5300.87369184
5304.93138035
5309.01747598
5313.10804684
5317.17877103
5321.2059014
5325.16587058
5329.03582101
5332.792863
5336.41576936
5339.8825482
5343.17395964
5346.26932291
5349.15147026
5351.8027814
5354.20541198
5356.35117089
5358.21191399
5359.80488906
5361.06870464
5362.07399767
5362.70268359
5363.08204069
5257.58659467
5258.03417125
5258.72719451
5259.82784394
5261.19631062
5262.89797984
5264.87851505
5267.14389671
5269.67182902
5272.44749963
5275.45389339
5278.6705412
5282.07841935
5285.65504827
5289.37862977
5293.22490849
5297.17179962
5301.19481739
5305.26935733
5309.37090254
5313.47544375
5317.55859714
5321.59650915
5325.56551569
5329.44286121
5333.20565373
5336.83268558
5340.30208317
5343.59464298
5346.68992833
5349.57049558
5352.21927264
5354.61761022
5356.75835479
5358.61168593
5360.19662515
5361.45151739
5362.44532125
5363.06511362
5363.43012208
5280.4095195
5280.36584011
5280.19446137
5279.96144942
5279.63251288
5279.2203711
5278.72745178
5278.15364087
5277.50855194
5276.79320524
5276.01689016
5275.18352805
5274.30145569
5273.37653177
5272.41652275
5271.42819889
5270.41900007
5269.39601556
5268.36635217
5267.33718156
5266.31385509
5265.30382347
5264.31396679
5263.34969977
5262.41686965
5261.52072373
5260.66664296
5259.85908906
5259.1032646
5258.40254661
5257.76234731
5257.18451482
5256.67490611
5256.23389727
5255.86622724
5255.57403116
5255.35245825
5255.21962396
5255.13289615
5255.15557863
5280.37335409
5280.37671952
5280.23898123
5280.02934881
5279.71927873
5279.32290317
5278.84433791
5278.28386763
5277.65178224
5276.94938765
5276.18622313
5275.36643143
5274.49839824
5273.58806845
5272.64318686
5271.67052269
5270.67746167
5269.67101364
5268.65823866
5267.64616461
5266.64019418
5265.64739233
5264.67481898
5263.72762926
5262.81156239
5261.93173868
5261.09337606
5260.30077075
5259.55890414
5258.87090443
5258.24194399
5257.67346952
5257.17109066
5256.73432325
5256.36807974
5256.07249904
5255.84416463
5255.69614483
5255.59537195
5255.60793685
5280.19638968
5280.2320751
5280.12340514
5279.93874262
5279.65011682
5279.27331152
5278.81347643
5278.27190899
5277.65897783
5276.9766402
5276.23427764
5275.43635668
5274.59113948
5273.70469183
5272.78466943
5271.83783554
5270.8714789
5269.89251391
5268.90788251
5267.92438994
5266.94760961
5265.98419152
5265.04090748
5264.12290762
5263.23564438
5262.38404483
5261.57304901
5260.8067625
5260.08983266
5259.42525087
5258.81770032
5258.26859187
5257.78305729
5257.36055195
5257.00574036
5256.71773038
5256.4942953
5256.34498449
5256.24505768
5256.26305647
5279.95776455
5280.01492607
5279.93084886
5279.77451046
5279.51336094
5279.1646487
5278.73313269
5278.2209405
5277.63829883
5276.98779524
5276.27869285
5275.51580333
5274.70727615
5273.85928813
5272.97936984
5272.07423551
5271.15101646
5270.21646578
5269.27734128
5268.34015793
5267.4104497
5266.49434368
5265.59829048
5264.72728594
5263.88637691
5263.08014621
5262.31312551
5261.58904823
5260.91208473
5260.28487045
5259.71156981
5259.19326483
5258.73457823
5258.33465071
5257.99807062
5257.72360787
5257.51050165
5257.36834148
5257.27758523
5257.30979688
5279.61487556
5279.68954985
5279.62641098
5279.4972382
5279.26409263
5278.9458489
5278.54638617
5278.06865048
5277.52255259
5276.91118443
5276.24357856
5275.52478496
5274.76277165
5273.96374385
5273.13504974
5272.283288
5271.41537206
5270.53783499
5269.65716704
5268.77951852
5267.91029191
5267.05519882
5266.22014854
5265.409896
5264.62903496
5263.88171832
5263.17200099
5262.50318705
5261.87891793
5261.30144587
5260.77437845
5260.29855285
5259.8780363
5259.51190249
5259.20430491
5258.95423129
5258.76081809
5258.63504996
5258.55713745
5258.60318884
5279.18560099
5279.27483823
5279.23073452
5279.12911466
5278.92627905
5278.64277904
5278.28114628
5277.84494354
5277.34363161
5276.78061165
5276.16466915
5275.50096275
5274.7972528
5274.05968464
5273.29537747
5272.51074062
5271.71240835
5270.90662161
5270.09952508
5269.29685273
5268.50373367
5267.72538868
5266.96712287
5266.2333129
5265.52802727
5264.85488742
5264.21738032
5263.61827884
5263.0606285
5262.54620325
5262.0780141
5261.65656619
5261.28537093
5260.96348371
5260.69456643
5260.4783347
5260.31309034
5260.21254026
5260.15325063
5260.21659666
5278.67147138
5278.77427349
5278.74840939
5278.6745732
5278.50360608
5278.25783333
5277.93831952
5277.54915949
5277.09930547
5276.59232707
5276.03671454
5275.43761351
5274.80252645
5274.13744812
5273.44921228
5272.74396153
5272.02798679
5271.3071655
5270.58721905
5269.87340654
5269.17046515
5268.48309144
5267.81593655
5267.17286685
5266.55736072
5265.97242977
5265.42092459
5264.90501207
5264.42709285
5263.98840129
5263.59132288
5263.23598216
5262.92528068
5262.65821806
5262.437728
5262.26426085
5262.13448388
5262.06477664
5262.02657785
5262.10582067
5278.07456689
5278.18999903
5278.18265526
5278.13766906
5278.00100786
5277.79668358
5277.52424717
5277.18821218
5276.79698329
5276.35417109
5275.86794277
5275.34332373
5274.78751853
5274.20628725
5273.6061223
5272.99282379
5272.37227211
5271.74990604
5271.1309521
5270.52013254
5269.92168124
5269.3396967
5268.77812881
5268.24022111
5267.72878412
5267.2461408
5266.79443008
5266.37513127
5265.98993437
5265.63944884
5265.32538054
5265.04738854
5264.80771859
5264.60526671
5264.44209032
5264.31944599
5264.23187925
5264.19882894
5264.18513425
5264.28217549
5277.4058723
5277.53381407
5277.54527203
5277.53021986
5277.43003841
5277.27052361
5277.04968205
5276.7723818
5276.44645049
5276.07543156
5275.66713036
5275.22635561
5274.75996087
5274.27338799
5273.77272796
5273.2633626
5272.7506953
5272.23965239
5271.73489433
5271.24053634
5270.76021346
5270.29735653
5269.85516391
5269.43616116
5269.04241363
5268.67548009
5268.33672097
5268.02685365
5267.74679645
5267.49645823
5267.27681151
5267.08696504
5266.92843434
5266.79991335
5266.70245436
5266.63796413
5266.59863018
5266.60654088
5266.61991783
5266.7342381
5276.66806398
5276.80855513
5276.83983019
5276.85642147
5276.79547175
5276.68452642
5276.52006702
5276.30726063
5276.05334639
5275.76171895
5275.43979122
5275.09207642
5274.72503088
5274.34369915
5273.95371224
5273.55996426
5273.16731452
5272.78010528
5272.40235926
5272.0375096
5271.68850685
5271.35804255
5271.04850845
5270.76162625
5270.49863858
5270.26026379
5270.04701194
5269.85876482
5269.69560088
5269.55664702
5269.44207543
5269.3503531
5269.28218448
5269.23595946
5269.21161281
5269.21162967
5269.22564146
5269.27842109
5269.32113978
5269.45364867
5275.87227176
5276.02562101
5276.077564
5276.12743
5276.10826917
5276.04946311
5275.94594375
5275.80314574
5275.62769222
5275.42275682
5275.19532027
5274.94952423
5274.69137345
5274.42544457
5274.15684303
5273.88990396
5273.62887553
5273.37744487
5273.13892609
5272.91599816
5272.71084114
5272.52534214
5272.36102983
5272.2187428
5272.09882734
5272.00109181
5271.92512775
5271.86990831
5271.83461199
5271.8175097
5271.81790771
5271.83354888
5271.86425546
5271.90801309
5271.96355462
5272.033828
5272.10584186
5272.20679621
5272.28095866
5272.43167983
5275.0241199
5275.19078739
5275.26460528
5275.34973199
5275.37521136
5275.37228324
5275.33432287
5275.26701104
5275.17633193
5275.06518685
5274.94008668
5274.80473662
5274.66463747
5274.52383176
5274.38683886
5274.25736395
5274.13897692
5274.03464027
5273.94689288
5273.87758253
5273.82804264
5273.79929488
5273.7919453
5273.80587563
5273.84046525
5273.89454591
5273.96672678
5274.05500312
5274.15759007
5274.27183089
5274.39609924
5274.52733346
5274.66440032
5274.80480106
5274.94599347
5275.09131582
5275.22508031
5275.37693406
5275.48408076
5275.6534696
5274.13369547
5274.31421734
5274.41098419
5274.53325608
5274.60606919
5274.66258523
5274.69459084
5274.70799862
5274.70811984
5274.69753334
5274.6822352
5274.66543161
5274.65206392
5274.6455743
5274.64983268
5274.66784615
5274.7024393
5274.75578195