/*--------------------------------*- C++ -*----------------------------------*\
| =========                 |                                                 |
| \\      /  F ield         | foam-extend: Open Source CFD                    |
|  \\    /   O peration     | Version:     4.1                                |
|   \\  /    A nd           | Web:         http://www.foam-extend.org         |
|    \\/     M anipulation  |                                                 |
\*---------------------------------------------------------------------------*/
FoamFile
{
    version     2.0;
    format      ascii;
    class       volScalarField;
    location    "0.8";
    object      alpha1;
}
// * * * * * * * * * * * * * * * * * * * * * * * * * * * * * * * * * * * * * //

dimensions      [0 0 0 0 0 0 0];

internalField   nonuniform List<scalar> 
96000
(
0.999999520364
0.99999955738
0.99999964295
0.999999703728
0.999999620852
0.999999388723
0.999999163143
0.999998977913
0.999998838935
0.999998741734
0.99999865108
0.999998537419
0.99999849116
0.999998500222
0.999998502703
0.999998493749
0.999998483291
0.999998473028
0.9999984485
0.999998406777
0.999998385333
0.999998377092
0.99999835676
0.999998342694
0.999998336621
0.999998330731
0.999998324722
0.999998311679
0.999998289433
0.999998265307
0.99999825016
0.999998239026
0.999998208687
0.99999820686
0.99999830203
0.999998340895
0.999998339702
0.999998308211
0.999998354026
0.999998725889
0.999999573134
0.999999645379
0.999999785273
0.999999827265
0.999999699981
0.99999946528
0.999999228569
0.999999044106
0.999998915254
0.999998818696
0.999998736944
0.999998674039
0.999998633838
0.999998613915
0.999998607103
0.99999860276
0.999998592813
0.999998575402
0.999998554074
0.999998532313
0.999998511044
0.999998493608
0.999998482467
0.999998475662
0.999998471605
0.999998467126
0.999998458044
0.9999984452
0.999998425335
0.999998398923
0.999998373716
0.999998364164
0.999998382106
0.999998420749
0.999998460379
0.999998478857
0.999998459389
0.999998396164
0.999998404306
0.99999879589
0.999999699268
0.999999837802
1.00000001762
1.00000007262
0.999999960449
0.999999747274
0.999999530499
0.999999363755
0.999999250001
0.999999167221
0.999999101432
0.999999053332
0.999999025778
0.99999901579
0.999999014514
0.999999012405
0.999999004429
0.999998990803
0.999998974537
0.999998958623
0.999998944853
0.999998935305
0.999998930714
0.999998929429
0.999998929496
0.999998928795
0.99999892453
0.999998913233
0.999998893701
0.999998867875
0.999998843033
0.999998829443
0.99999884034
0.999998871218
0.999998897512
0.999998896104
0.999998848184
0.999998737271
0.999998625956
0.999998965785
0.999999823114
0.999999963115
1.00000015911
1.00000024141
1.00000015431
0.999999963808
0.999999761962
0.999999606401
0.999999504258
0.999999435577
0.999999383925
0.999999348061
0.999999331167
0.999999330109
0.999999335415
0.999999338363
0.999999334535
0.999999324719
0.999999312379
0.999999300842
0.999999292409
0.999999288279
0.999999288145
0.99999929066
0.999999294071
0.999999295486
0.999999292032
0.99999928069
0.99999925962
0.999999230292
0.999999200394
0.999999181817
0.999999188575
0.999999216077
0.999999236521
0.999999223131
0.99999915121
0.999999003191
0.999998856948
0.999999102179
0.999999855837
0.999999954858
1.00000016278
1.00000026911
1.00000020653
1.00000002186
0.999999829865
0.999999683025
0.999999589933
0.999999532757
0.999999491659
0.999999463658
0.999999453108
0.999999458816
0.999999470941
0.999999478974
0.99999947858
0.999999471711
0.999999462117
0.999999453293
0.999999448048
0.999999447685
0.999999451085
0.999999457266
0.999999464216
0.999999469215
0.99999946891
0.999999458894
0.999999438325
0.999999408024
0.999999375304
0.999999355765
0.999999362914
0.999999392627
0.999999418565
0.999999374483
0.999999241245
0.999999052269
0.999998934135
0.999999091896
0.999999736267
0.999999856348
1.00000008371
1.00000020399
1.00000014903
0.999999966036
0.999999770241
0.999999621879
0.999999529921
0.999999476825
0.999999440402
0.999999414034
0.999999403174
0.999999411099
0.999999427989
0.999999438201
0.999999438311
0.999999430345
0.9999994177
0.999999403309
0.999999391362
0.999999387236
0.999999388669
0.999999392881
0.999999399298
0.999999404417
0.999999405708
0.999999393576
0.999999362028
0.99999931415
0.999999260085
0.999999220424
0.99999921801
0.999999253285
0.999999285579
0.999999251327
0.999999119155
0.999998910501
0.999998729079
0.99999896847
0.999999604459
0.99999975663
1.00000000161
1.00000012769
1.00000007366
0.999999889475
0.999999689116
0.999999537387
0.999999444898
0.999999392507
0.999999355592
0.999999325677
0.999999320853
0.999999329227
0.999999339743
0.999999350031
0.999999348271
0.999999333792
0.999999317842
0.999999309546
0.999999307822
0.999999305465
0.999999301992
0.999999298205
0.999999290948
0.999999280416
0.999999264305
0.999999247601
0.999999213176
0.99999915661
0.999999089526
0.999999029213
0.999999011322
0.99999905889
0.999999111408
0.999999086514
0.999998964884
0.99999875303
0.999998514902
0.999998856476
0.9999995608
0.999999692721
0.99999994684
1.00000007731
1.00000002456
0.99999984059
0.999999639001
0.999999486265
0.999999400435
0.999999349494
0.999999313222
0.999999305733
0.999999311683
0.999999318446
0.999999322736
0.999999324186
0.999999322145
0.999999316804
0.999999306927
0.999999301401
0.999999300123
0.999999297065
0.999999292378
0.999999287133
0.9999992782
0.999999261463
0.99999923328
0.999999197373
0.999999148208
0.999999083727
0.999999018329
0.999998975649
0.999998956497
0.999998966181
0.999998994224
0.999998976685
0.999998868046
0.999998661079
0.999998448673
0.999998798749
0.999999515366
0.99999964789
0.999999905785
1.00000004247
0.999999993447
0.999999809642
0.999999610948
0.999999461757
0.999999379929
0.999999334583
0.999999302122
0.999999297577
0.999999309074
0.999999321014
0.999999328329
0.999999330848
0.999999329886
0.999999327809
0.999999322649
0.999999314071
0.999999309032
0.999999303095
0.999999298996
0.999999295471
0.99999929103
0.999999280929
0.999999256599
0.999999214718
0.999999159851
0.999999092976
0.999999024406
0.999998982711
0.999998970653
0.999998972311
0.999998970961
0.999998955987
0.999998849773
0.999998646747
0.999998502981
0.999998795987
0.999999454079
0.999999590844
0.999999851715
0.999999997241
0.999999953755
0.999999771844
0.999999577459
0.999999432959
0.999999353201
0.99999931486
0.999999291273
0.999999279852
0.999999289485
0.999999307692
0.999999325691
0.999999337593
0.999999337837
0.999999326281
0.999999322896
0.999999320402
0.999999313904
0.99999930798
0.999999304772
0.999999301618
0.999999295945
0.999999287902
0.999999273018
0.999999235001
0.999999182718
0.999999114626
0.99999903477
0.999998978816
0.999998964648
0.99999897556
0.999998994315
0.9999989751
0.999998859808
0.999998661608
0.999998543928
0.999998814716
0.999999398568
0.99999950848
0.999999774848
0.999999930425
0.999999894537
0.999999715686
0.999999524508
0.999999383398
0.999999307353
0.999999275115
0.999999260807
0.999999254521
0.999999261869
0.999999284728
0.99999931138
0.9999993294
0.999999333584
0.999999324667
0.999999314156
0.999999308549
0.99999930296
0.999999299117
0.999999296926
0.999999295318
0.999999289462
0.99999927841
0.999999261639
0.99999923422
0.99999918725
0.999999115588
0.999999031225
0.999998964952
0.999998942207
0.999998963395
0.999999007075
0.999998974653
0.999998853251
0.99999865744
0.999998461085
0.999998818389
0.999999308038
0.999999405333
0.999999683207
0.999999850156
0.99999982272
0.999999648163
0.999999459362
0.999999319802
0.999999247887
0.999999222842
0.999999211848
0.999999211256
0.999999226135
0.999999254354
0.999999283083
0.999999302254
0.999999308603
0.999999305049
0.999999293893
0.999999283118
0.999999277024
0.999999275598
0.99999927575
0.99999927462
0.999999269182
0.999999256239
0.999999233386
0.999999206237
0.999999158419
0.999999087692
0.999999004278
0.999998932096
0.999998915924
0.999998950225
0.999998972941
0.999998937708
0.99999882083
0.99999862352
0.999998400078
0.999998796925
0.999999192482
0.999999298486
0.99999958986
0.999999768649
0.999999750787
0.999999581171
0.999999395053
0.999999257617
0.999999189632
0.999999169067
0.999999163485
0.999999169004
0.9999991892
0.999999220279
0.999999250854
0.999999269636
0.999999275213
0.999999273409
0.999999266675
0.999999256977
0.999999250227
0.999999250328
0.999999251706
0.999999247616
0.999999240435
0.999999226072
0.999999200055
0.999999165004
0.999999110812
0.999999032718
0.999998950009
0.999998892776
0.999998863638
0.999998900097
0.999998911969
0.999998883073
0.999998774084
0.999998575081
0.999998406149
0.999998765658
0.99999908665
0.999999198605
0.999999502185
0.999999692863
0.999999685609
0.999999520828
0.999999338002
0.999999203229
0.999999139216
0.999999124341
0.999999125315
0.999999136035
0.999999159506
0.999999192015
0.999999223434
0.999999244725
0.999999252746
0.999999251118
0.999999243873
0.999999235702
0.999999231888
0.999999230588
0.999999227028
0.999999221922
0.999999213962
0.999999195428
0.99999917019
0.999999133966
0.99999907056
0.999998981955
0.9999989066
0.999998854296
0.999998787683
0.999998812264
0.999998864971
0.999998843854
0.999998734316
0.999998533749
0.999998418477
0.999998737261
0.999998996426
0.999999106212
0.999999420017
0.999999622371
0.999999626507
0.999999465709
0.999999286333
0.999999154161
0.99999909481
0.999999086709
0.999999092767
0.999999106759
0.999999133211
0.999999166719
0.999999199351
0.999999225984
0.999999237398
0.999999232553
0.99999922195
0.999999214234
0.999999214511
0.9999992125
0.999999205493
0.999999203244
0.999999196472
0.999999176528
0.999999152158
0.999999110563
0.999999042187
0.999998964839
0.999998887281
0.999998784187
0.99999876578
0.999998777209
0.999998843821
0.999998823882
0.999998710492
0.999998507961
0.999998410914
0.99999872322
0.999998912874
0.999999017175
0.999999339688
0.999999553244
0.999999569154
0.999999411216
0.999999235
0.999999105178
0.999999050205
0.999999047165
0.999999057275
0.999999073919
0.999999102216
0.999999139152
0.999999174335
0.999999200285
0.999999211181
0.999999206365
0.999999198238
0.999999192389
0.999999190213
0.999999190515
0.999999190794
0.999999185519
0.999999173771
0.99999916593
0.999999142735
0.999999088551
0.999999022632
0.999998958771
0.999998857492
0.9999987472
0.999998760923
0.999998784534
0.99999884108
0.999998811136
0.999998699904
0.999998498304
0.999998381394
0.999998727934
0.999998827744
0.999998927961
0.999999258575
0.999999482663
0.999999510158
0.999999354643
0.999999180857
0.999999053
0.999999000969
0.999999002033
0.999999015525
0.999999034667
0.999999064779
0.999999105215
0.999999142127
0.999999163521
0.999999174045
0.999999173849
0.999999169366
0.999999165158
0.99999915965
0.999999162843
0.999999169776
0.999999156709
0.999999139212
0.999999135431
0.999999111644
0.999999063564
0.999999001379
0.999998931954
0.999998804526
0.999998738619
0.999998753944
0.999998789121
0.999998825966
0.999998797967
0.999998698808
0.999998500544
0.99999834772
0.999998739996
0.999998740604
0.999998838341
0.999999176687
0.999999410719
0.999999449861
0.999999296445
0.999999124478
0.999998997565
0.999998947788
0.999998953362
0.999998969775
0.999998991721
0.999999023492
0.999999063113
0.999999102646
0.999999127761
0.999999135853
0.999999136282
0.999999134289
0.999999131993
0.999999128788
0.999999129946
0.999999131233
0.999999125057
0.999999113453
0.999999078883
0.99999903847
0.999999015537
0.999998988584
0.999998883208
0.99999872577
0.999998734858
0.999998752962
0.999998777194
0.999998788286
0.999998793505
0.999998700671
0.999998506674
0.999998385317
0.999998745825
0.999998657036
0.999998750126
0.999999095587
0.999999339184
0.999999390495
0.999999238827
0.999999068564
0.999998941264
0.999998894172
0.999998904868
0.999998923468
0.999998947688
0.999998981755
0.999999021645
0.999999062038
0.999999092658
0.999999101842
0.999999102802
0.999999102184
0.999999098033
0.999999097711
0.999999100328
0.999999097476
0.999999102251
0.999999094972
0.999999045088
0.999998986542
0.999998960579
0.999998957379
0.999998820033
0.999998711904
0.99999873467
0.999998742816
0.999998755487
0.999998782662
0.999998811174
0.999998696174
0.999998504027
0.999998473917
0.999998745584
0.999998578095
0.999998663732
0.999999016358
0.999999269579
0.999999334019
0.999999183833
0.999999015603
0.999998886525
0.999998842405
0.999998860051
0.999998882245
0.999998905532
0.999998941858
0.999998987548
0.999999026297
0.999999054691
0.999999073371
0.999999078393
0.999999076441
0.999999073319
0.999999077639
0.999999085457
0.999999084279
0.999999075363
0.999999063234
0.999999055105
0.999999013211
0.99999895971
0.9999989099
0.999998799884
0.999998728147
0.999998722771
0.999998725846
0.999998746606
0.999998801035
0.99999880723
0.999998686308
0.999998492084
0.999998391003
0.999998748819
0.999998496939
0.999998578982
0.999998940133
0.999999203206
0.999999281637
0.999999132441
0.999998966201
0.99999883629
0.999998794815
0.999998816631
0.999998844141
0.999998869382
0.999998907372
0.999998954481
0.99999899463
0.999999026552
0.999999050995
0.999999056112
0.999999052305
0.999999058706
0.999999076125
0.999999082822
0.999999073526
0.999999051444
0.999999042951
0.999999060142
0.999999044377
0.999998970511
0.999998891201
0.999998839964
0.999998725713
0.99999868588
0.99999871317
0.999998754181
0.999998778602
0.99999874289
0.999998670623
0.999998489854
0.999998354139
0.999998773287
0.999998411758
0.999998498535
0.999998868134
0.999999140692
0.999999233345
0.999999084409
0.999998919337
0.999998790071
0.99999875097
0.999998776768
0.99999880566
0.999998835501
0.999998876109
0.999998920387
0.999998968318
0.999999009607
0.999999028304
0.999999032203
0.999999037726
0.999999056186
0.999999074798
0.999999073535
0.99999906042
0.999999056445
0.999999065895
0.999999048407
0.999999018344
0.999998982954
0.999998897081
0.999998788654
0.999998703895
0.999998684302
0.999998687957
0.999998750052
0.999998781996
0.999998697397
0.999998676377
0.999998520792
0.999998352144
0.999998838322
0.999998332231
0.999998423937
0.999998800238
0.999999081376
0.999999187821
0.999999038842
0.999998874313
0.99999874474
0.99999870795
0.999998738798
0.999998768328
0.999998799721
0.999998841251
0.999998889936
0.999998944881
0.999998985824
0.99999900296
0.999999014678
0.999999035354
0.999999055796
0.999999056118
0.999999048123
0.99999906528
0.999999108276
0.99999909831
0.999999019806
0.999998970964
0.999999024532
0.999998936747
0.999998690269
0.999998691797
0.999998737547
0.999998672073
0.999998722565
0.999998838728
0.999998821556
0.999998729964
0.999998538194
0.99999835272
0.999998836158
0.999998270736
0.999998354137
0.999998735128
0.999999024631
0.999999144163
0.999998994847
0.999998830266
0.999998699876
0.999998663953
0.999998697093
0.999998731548
0.999998762681
0.999998804085
0.999998860688
0.999998916256
0.999998953032
0.999998978161
0.999999005151
0.999999029615
0.999999037775
0.999999025806
0.999999035376
0.999999097543
0.999999149024
0.999999072252
0.999998967201
0.999998939363
0.999999009116
0.999999004514
0.999998836747
0.999998717945
0.999998669616
0.999998714047
0.999998687779
0.99999872114
0.999998977824
0.99999878134
0.999998539972
0.99999853061
0.999998701142
0.999998214324
0.999998287034
0.999998672918
0.999998970328
0.999999102281
0.999998952025
0.999998787077
0.999998655303
0.999998617689
0.999998653911
0.999998695402
0.999998724844
0.999998765766
0.999998826434
0.999998881834
0.999998923029
0.99999895866
0.999998990273
0.99999900552
0.999999006507
0.999999014172
0.999999069594
0.99999913469
0.999999080983
0.999999004898
0.999998985694
0.99999901081
0.999998905564
0.999998840815
0.999998937828
0.999998774123
0.999998550428
0.999998663605
0.999998624398
0.999998615495
0.9999987556
0.999998752985
0.99999854517
0.999998783477
0.999998841454
0.999998152904
0.999998222192
0.999998613895
0.999998918241
0.999999062654
0.99999891046
0.999998744803
0.999998611401
0.99999857224
0.999998612563
0.999998654996
0.999998685756
0.9999987319
0.999998789676
0.999998844252
0.999998898486
0.999998941058
0.999998962673
0.999998977733
0.999998992805
0.999999041303
0.999999134189
0.999999102305
0.999998991488
0.999998977125
0.999999143441
0.999999018642
0.999998765611
0.999998704755
0.999998872981
0.999998710108
0.99999857333
0.999998526892
0.999998566336
0.999998677441
0.999998584211
0.999998550257
0.999998678009
0.999998709348
0.999999000233
0.999998091005
0.999998161142
0.999998556934
0.999998867616
0.999999025044
0.999998869536
0.999998702093
0.999998568018
0.999998531492
0.999998572649
0.999998612028
0.999998645872
0.999998696701
0.999998752479
0.999998810811
0.99999887401
0.999998921856
0.99999894065
0.99999896499
0.999999017317
0.99999910806
0.999999107955
0.999999013937
0.999998996649
0.999999107933
0.99999905842
0.999998903608
0.999998752069
0.999998818506
0.999998561831
0.999998549415
0.999998682103
0.999998558839
0.999998647389
0.999998808211
0.999998718339
0.999998536911
0.999998475564
0.999998370073
0.999998881548
0.999998041055
0.999998102266
0.999998499976
0.99999881707
0.999998985292
0.999998826737
0.999998656189
0.999998521682
0.999998491572
0.999998529496
0.999998568797
0.999998605943
0.999998653875
0.999998711639
0.999998781968
0.999998850532
0.999998899889
0.999998931399
0.999998968136
0.999999054683
0.999999142218
0.999999036946
0.999999009725
0.999999199292
0.999999103124
0.999998821491
0.99999880832
0.999999057917
0.999999049247
0.999998778881
0.99999847127
0.999998563178
0.999998520591
0.999998551086
0.999998614041
0.999998683649
0.999998730066
0.999998345761
0.999998349876
0.999998723837
0.999997992401
0.999998040525
0.999998440908
0.999998764292
0.999998936886
0.999998777195
0.999998603032
0.999998467813
0.999998437747
0.999998474173
0.999998517707
0.999998556548
0.999998601552
0.999998666568
0.999998746582
0.99999881156
0.99999885958
0.999998923121
0.999998983325
0.999999012679
0.999999020525
0.999999111619
0.999999214951
0.999999127901
0.999998930727
0.999998852858
0.999999018671
0.99999899485
0.999998945734
0.999998829199
0.999998542341
0.999998314013
0.999998250311
0.999998252976
0.999998290421
0.999998493501
0.999998547288
0.999998341652
0.999998352046
0.999998672067
0.99999791372
0.999997975511
0.999998379147
0.99999870692
0.999998877969
0.999998717087
0.9999985384
0.999998402004
0.999998365705
0.999998399444
0.999998446899
0.999998489327
0.999998539237
0.999998609944
0.999998681441
0.999998743246
0.999998814411
0.999998891581
0.999998925318
0.99999891634
0.999998994543
0.999999193668
0.999999181001
0.999998933822
0.999998936749
0.999999083278
0.99999895412
0.99999861788
0.999998544391
0.999998702479
0.999998451862
0.9999979926
0.999997882944
0.999997826917
0.999998049691
0.999998281316
0.999998271955
0.999998283448
0.999998365264
0.999998683122
0.999997812063
0.999997911072
0.999998315795
0.999998645594
0.999998814184
0.99999865
0.999998463624
0.99999831994
0.999998284947
0.999998317788
0.999998364705
0.999998410469
0.9999984624
0.999998527919
0.999998595633
0.99999867596
0.999998767721
0.999998811524
0.999998827331
0.999998919574
0.999999077844
0.999999070653
0.999998927817
0.999998980617
0.999999116531
0.999999030824
0.999998706028
0.999998510913
0.999998520175
0.999998365956
0.999998090849
0.999997898175
0.99999778489
0.999997641843
0.999997829209
0.999998079155
0.999998108724
0.999998132372
0.999998248336
0.999998619022
0.999997778868
0.999997848988
0.999998253309
0.999998586114
0.999998756491
0.999998586981
0.99999839437
0.999998238093
0.999998202498
0.999998241248
0.999998289921
0.999998334617
0.999998383618
0.99999844992
0.999998539618
0.99999863397
0.999998701775
0.999998760977
0.999998851192
0.999998959116
0.999999035493
0.999998987837
0.99999891046
0.999998994074
0.999999077864
0.999998818929
0.999998590077
0.999998504008
0.999998356275
0.999998033148
0.999997848153
0.999997825724
0.999997616768
0.999997641116
0.999997826192
0.999997764209
0.9999979281
0.999998001471
0.999998096132
0.999998525537
0.999997761617
0.999997812169
0.999998197066
0.999998535727
0.999998716579
0.999998539649
0.999998347595
0.999998185843
0.999998131249
0.99999818238
0.999998243148
0.999998284196
0.999998338511
0.99999842092
0.999998520758
0.999998605663
0.999998678235
0.99999879714
0.999998930022
0.999998955653
0.999998961329
0.99999904427
0.999999007338
0.999998957382
0.999998940064
0.999998816766
0.999998590988
0.999998324591
0.999998043486
0.999997924532
0.999997831394
0.999997536796
0.999997345822
0.999997828777
0.999997662113
0.999997598711
0.999997791307
0.99999792936
0.999997998151
0.9999984552
0.999997733048
0.999997773717
0.999998153418
0.999998496067
0.99999868466
0.999998506012
0.999998316259
0.999998160525
0.99999810252
0.999998154407
0.999998215823
0.999998257894
0.999998323312
0.999998417444
0.999998514218
0.999998611228
0.999998710211
0.99999880724
0.999998915122
0.999999032302
0.999999067342
0.99999899099
0.999999004152
0.999999181153
0.999999043053
0.999998751011
0.999998533533
0.999998229891
0.999997880316
0.999997820477
0.999997695106
0.99999727685
0.999997290177
0.999997473927
0.999997381966
0.999997592279
0.999997825756
0.999997862527
0.999997972451
0.999998436296
0.999997695641
0.999997724906
0.999998104517
0.999998449653
0.999998614035
0.99999845492
0.999998270936
0.9999981323
0.999998078155
0.999998108354
0.999998166979
0.99999822741
0.999998297542
0.999998389467
0.999998493473
0.999998608389
0.999998725859
0.999998810912
0.999998888027
0.999999023625
0.999999164948
0.999999030051
0.999999032897
0.999999187319
0.999999116005
0.999998706755
0.999998467264
0.999998275987
0.999997902933
0.999997648828
0.999997491165
0.999997183357
0.999997101408
0.99999710522
0.99999734771
0.999997705324
0.999997836584
0.999997861521
0.999997973567
0.999998438185
0.999997644472
0.999997661743
0.999998024066
0.999998364725
0.999998469973
0.999998336025
0.999998164251
0.999998034182
0.999997982415
0.999998010004
0.999998067377
0.999998134318
0.999998210547
0.999998306389
0.99999842309
0.999998547362
0.999998666251
0.999998774052
0.999998874389
0.999998966702
0.999999015232
0.999999055969
0.999999172067
0.999999091164
0.999998956616
0.999998709473
0.999998430696
0.99999826398
0.999998061873
0.999997718278
0.999997284728
0.999997141345
0.999997095673
0.999997125837
0.999997523449
0.999997730082
0.99999782557
0.99999789804
0.999997935565
0.999998412516
0.999997592763
0.999997555488
0.999997900978
0.99999821756
0.999998263234
0.9999981342
0.999997970802
0.999997849417
0.999997806946
0.999997837718
0.999997894437
0.999997961539
0.999998043306
0.999998150436
0.999998275428
0.999998401054
0.999998530863
0.999998664982
0.999998773307
0.999998836741
0.999998887163
0.999998997824
0.999999094393
0.999998956561
0.999998727093
0.999998547493
0.99999840129
0.999998190546
0.999997935739
0.999997630303
0.999997193274
0.999997106845
0.999997092942
0.999997349176
0.999997572674
0.999997653899
0.999997775419
0.999997791582
0.999997846554
0.999998347119
0.999997431236
0.999997393619
0.99999771384
0.999998002927
0.999998009029
0.999997860051
0.999997689326
0.999997566945
0.999997527476
0.999997554825
0.999997612305
0.999997680713
0.999997763653
0.999997879131
0.999998013814
0.999998158338
0.999998318704
0.999998452186
0.999998533569
0.999998611988
0.999998725842
0.999998841703
0.999998870468
0.999998800921
0.999998614797
0.999998360569
0.999998129881
0.99999791843
0.999997567032
0.999997182071
0.999997121072
0.999997110283
0.99999709255
0.999997092435
0.999997242072
0.999997425253
0.999997510878
0.999997517814
0.999997690034
0.999998188381
0.999997500871
0.999997418448
0.999997531963
0.99999782199
0.999997821749
0.99999763342
0.999997456356
0.999997307714
0.999997217037
0.999997247848
0.999997349247
0.999997487933
0.999997638383
0.99999776302
0.999997892313
0.999998081384
0.999998237922
0.999998244932
0.99999831833
0.999998521913
0.999998756543
0.999998862768
0.999998769819
0.999998763701
0.999998653485
0.999998400241
0.999998080942
0.999997802103
0.99999757758
0.999997320965
0.999997249864
0.999997199659
0.999997103061
0.999997092229
0.999997165795
0.999997369079
0.999997506352
0.999997537313
0.999997567568
0.999998161673
0.999998023203
0.999997978557
0.999998113721
0.999998252572
0.999998218429
0.999998092249
0.99999797094
0.99999790281
0.999997898866
0.999997928915
0.999997982151
0.999998045101
0.999998124818
0.999998232172
0.999998340922
0.99999845982
0.999998612321
0.999998736808
0.999998808006
0.999998880406
0.99999902305
0.999999140281
0.9999991256
0.99999903812
0.999998915428
0.999998765766
0.999998578079
0.999998358324
0.999998174315
0.999998084088
0.999997881955
0.999997680164
0.999997735017
0.999997819309
0.999997913347
0.999998010675
0.999998122633
0.999998123783
0.999998137058
0.99999874873
0.999999536773
0.999999555486
0.99999967698
0.999999702965
0.99999957477
0.999999342828
0.999999110797
0.999998921835
0.999998784399
0.999998685983
0.999998599806
0.999998518751
0.99999847705
0.999998475054
0.999998474192
0.999998466993
0.999998455465
0.999998440719
0.999998424449
0.999998400884
0.999998375493
0.999998366042
0.999998361053
0.999998354443
0.999998349085
0.999998343675
0.999998336297
0.99999832338
0.999998305573
0.999998289737
0.999998276929
0.999998257843
0.999998247681
0.999998296825
0.999998353298
0.999998390393
0.999998398302
0.999998381821
0.99999842456
0.999998830391
0.999999575758
0.999999711104
0.99999985037
0.999999859382
0.999999714621
0.999999486384
0.999999263578
0.999999092619
0.999998972501
0.999998881384
0.999998807484
0.999998752471
0.999998719077
0.999998704336
0.999998701064
0.999998698663
0.999998690831
0.999998677073
0.999998659948
0.999998642599
0.99999862648
0.999998613606
0.999998606736
0.999998604143
0.99999860332
0.999998602004
0.999998597611
0.999998587356
0.999998571128
0.999998551754
0.999998535609
0.999998537099
0.999998567686
0.999998613094
0.999998655345
0.999998673498
0.999998660506
0.999998611656
0.999998566282
0.999998904799
0.999999748257
0.999999907961
1.00000007097
1.00000010125
0.9999999818
0.999999780134
0.999999583169
0.999999434776
0.999999332754
0.999999257996
0.999999200303
0.999999160734
0.999999141096
0.999999137115
0.999999139851
0.999999141023
0.999999136541
0.999999126836
0.999999114843
0.999999103471
0.999999094826
0.999999090088
0.999999089557
0.99999909189
0.999999095423
0.999999097633
0.99999909584
0.999999087786
0.999999072584
0.999999052815
0.999999035544
0.999999031504
0.999999050236
0.999999085658
0.999999115426
0.999999112774
0.999999059957
0.999998957467
0.999998845492
0.999999060004
0.999999847258
1.00000000343
1.00000018812
1.0000002469
1.00000015396
0.999999976519
0.999999796835
0.999999662699
0.999999574537
0.999999513638
0.999999468956
0.999999440639
0.999999430179
0.999999433083
0.999999440531
0.99999944515
0.999999443486
0.999999436702
0.999999427884
0.99999942012
0.999999415333
0.999999414536
0.999999417103
0.999999421963
0.999999427346
0.99999943046
0.999999428846
0.999999419952
0.999999402497
0.999999378759
0.999999357194
0.999999347172
0.999999360556
0.999999391289
0.999999412434
0.999999394047
0.999999309778
0.999999162746
0.999999017344
0.999999172208
0.999999840083
0.999999979121
1.00000018303
1.00000026508
1.00000019109
1.00000002328
0.999999852445
0.999999725813
0.999999646142
0.999999594055
0.999999557306
0.999999535496
0.999999530282
0.999999537
0.999999547283
0.999999554068
0.999999553987
0.999999548532
0.999999541097
0.999999534887
0.999999531816
0.999999532325
0.999999535675
0.999999540934
0.999999546005
0.999999548197
0.999999545137
0.999999533927
0.999999512803
0.999999483498
0.999999454631
0.999999438104
0.999999446509
0.99999947486
0.999999494166
0.999999462591
0.999999351489
0.999999172119
0.999999007309
0.999999151512
0.999999734055
0.999999885485
1.00000011008
1.00000020797
1.00000014264
0.99999997793
0.999999806962
0.9999996824
0.999999606009
0.999999557509
0.999999524205
0.999999505519
0.999999502584
0.999999510539
0.99999952155
0.999999528447
0.99999952829
0.999999522588
0.999999514695
0.999999507854
0.99999950397
0.99999950332
0.999999505037
0.999999508066
0.999999510153
0.999999508805
0.999999501297
0.999999484266
0.999999455609
0.999999417198
0.999999378464
0.999999354663
0.999999358248
0.999999386839
0.99999940835
0.999999377116
0.999999260656
0.999999067902
0.999998876096
0.999999047805
0.999999623159
0.999999797015
1.00000003843
1.00000014521
1.00000008364
0.999999918911
0.99999974746
0.999999623855
0.999999549212
0.999999502723
0.999999471174
0.999999453738
0.999999450544
0.999999459306
0.999999471978
0.999999478748
0.999999478071
0.999999471772
0.9999994625
0.999999452636
0.999999444728
0.999999441254
0.999999441153
0.999999442505
0.999999443232
0.999999439852
0.999999429677
0.999999407669
0.999999372571
0.999999327044
0.999999280437
0.999999251067
0.999999250167
0.999999276902
0.999999299437
0.99999927187
0.999999156598
0.999998957862
0.999998755341
0.999998948198
0.999999546757
0.999999738867
0.99999998997
1.00000010216
1.00000004318
0.999999879331
0.999999709133
0.999999587478
0.99999951389
0.999999469705
0.999999440224
0.999999420366
0.999999417069
0.999999428464
0.999999444208
0.999999453773
0.999999453569
0.999999445712
0.999999434831
0.999999423818
0.99999941545
0.999999411467
0.999999410464
0.999999410416
0.999999409271
0.999999404564
0.999999393315
0.999999371073
0.999999333923
0.999999283951
0.999999229863
0.999999190734
0.999999184516
0.999999212703
0.999999238715
0.99999921333
0.999999101021
0.999998904086
0.999998693721
0.999998905042
0.999999506269
0.999999692469
0.999999949068
1.00000006641
1.00000001047
0.999999848259
0.999999680243
0.999999561284
0.999999490948
0.999999449983
0.999999424103
0.999999407499
0.999999406179
0.999999420743
0.999999440506
0.999999452607
0.999999453717
0.99999944638
0.999999435387
0.999999425382
0.999999418242
0.999999415696
0.999999414547
0.999999413448
0.999999409856
0.999999403095
0.999999391723
0.999999369274
0.999999330665
0.999999278329
0.999999220977
0.999999176248
0.999999163793
0.999999189537
0.999999218639
0.999999193456
0.999999083447
0.999998890912
0.999998683493
0.999998906844
0.999999462227