/*--------------------------------*- C++ -*----------------------------------*\
| =========                 |                                                 |
| \\      /  F ield         | foam-extend: Open Source CFD                    |
|  \\    /   O peration     | Version:     4.1                                |
|   \\  /    A nd           | Web:         http://www.foam-extend.org         |
|    \\/     M anipulation  |                                                 |
\*---------------------------------------------------------------------------*/
FoamFile
{
    version     2.0;
    format      ascii;
    class       volScalarField;
    location    "0.8";
    object      epsilon;
}
// * * * * * * * * * * * * * * * * * * * * * * * * * * * * * * * * * * * * * //

dimensions      [0 2 -3 0 0 0 0];

internalField   nonuniform List<scalar> 
96000
(
0.00838961545904
0.00876663686578
0.00923507358282
0.00951390176556
0.0096573288426
0.00972795032465
0.00976215718043
0.0097793671915
0.00978880388458
0.00979508294727
0.00980013517611
0.00980489869837
0.00980971969226
0.00981476402891
0.00982007571277
0.0098256644133
0.00983152350585
0.00983763185973
0.00984395948955
0.00985043910999
0.0098570482219
0.00986385524438
0.00987072511346
0.00987759579986
0.00988445493418
0.00989125056209
0.00989792773209
0.00990440412799
0.00991053907855
0.00991609207784
0.00992047920082
0.00992254481165
0.00991955385544
0.0099061426508
0.00987082169519
0.00979226649471
0.00963012593279
0.00932068121336
0.00881209595949
0.00839709349944
0.00876553135431
0.0130677182865
0.0164615724917
0.0186442660109
0.0199105688881
0.0206166534832
0.0209942055738
0.0211916800577
0.0212938826332
0.0213499466283
0.0213842031701
0.0214094790977
0.0214313007756
0.0214524417226
0.0214739378448
0.0214962863291
0.0215196128168
0.0215439189203
0.0215691618622
0.0215951224485
0.0216217460162
0.0216490165211
0.0216766666917
0.0217044164178
0.0217321058077
0.0217594467292
0.0217859008301
0.0218106815847
0.0218320350288
0.0218465239089
0.0218465778776
0.0218177412791
0.0217302386329
0.0215320957823
0.0211286480728
0.0203719315938
0.0190228112848
0.0167424611823
0.0132441103313
0.00877275736423
0.0092320106255
0.0164559264587
0.0223727579742
0.0262830473801
0.0286861900791
0.0301095738189
0.0309172968354
0.0313605877245
0.0315962103399
0.0317222983298
0.0317927769684
0.0318372089362
0.0318702093548
0.0318989727635
0.0319266355774
0.0319547675343
0.0319838919241
0.0320142429028
0.0320457676118
0.0320783044071
0.0321117782614
0.0321461612176
0.0321810957906
0.0322162029978
0.032251167566
0.0322853885846
0.0323177614182
0.0323462200443
0.0323663283827
0.0323694712483
0.0323376857881
0.0322381377315
0.0320089919466
0.0315487577655
0.0306883599888
0.0291811371594
0.0266566040285
0.0226154406427
0.0165675724833
0.00922516623622
0.00950964241095
0.0186360865132
0.026280277386
0.0314916433288
0.0348269871424
0.0368876612759
0.0381088780017
0.038806563276
0.039190660774
0.0393999298373
0.0395154666827
0.0395844366901
0.0396316506398
0.0396694919538
0.0397040625123
0.0397382806916
0.0397731803516
0.0398092966401
0.03984672918
0.0398853220957
0.0399250632805
0.0399657828261
0.0400070746637
0.0400485312108
0.040089584029
0.0401292407781
0.0401655982255
0.0401949529654
0.0402095980243
0.0401947573868
0.0401214287339
0.0399383519477
0.0395550142494
0.0388296235051
0.0375398787268
0.0353772409842
0.0318998427254
0.0265405827759
0.0187382985459
0.00949581462356
0.00965247801648
0.0199008915253
0.0286816826453
0.0348252155127
0.0388766763589
0.0414579540326
0.0430372794804
0.0439679855714
0.0444957054255
0.044789450703
0.0449528250946
0.045048784623
0.0451115564473
0.0451591884049
0.0452008941238
0.0452409585644
0.0452812433452
0.0453226117188
0.0453652879613
0.0454092069906
0.0454543415672
0.0455004579044
0.045547091385
0.0455937599513
0.0456396632797
0.0456833676141
0.0457220679938
0.0457502601039
0.0457568412054
0.0457208938321
0.0456030343811
0.0453359011925
0.0448056636199
0.0438405770039
0.0421827439622
0.0394878788754
0.0352802742123
0.0289744394518
0.0200092168621
0.00963597859063
0.00972289496023
0.0206066123532
0.0301047897067
0.0368857013876
0.0414579076398
0.0444379727725
0.0463047246214
0.0474309984035
0.0480848341411
0.0484555300796
0.0486644651536
0.0487869632083
0.04886539025
0.048923209803
0.0489721826171
0.049018142628
0.0490638496833
0.0491104295209
0.0491582569806
0.0492073504245
0.049257656655
0.04930890534
0.0493605896386
0.0494121371411
0.0494624995662
0.0495098358944
0.0495504175307
0.0495770255085
0.0495753904442
0.0495191126826
0.0493599576256
0.0490175271382
0.0483604309874
0.0471959642826
0.0452439807471
0.0421414347256
0.037400620466
0.0304418048347
0.0207310198949
0.00970582357928
0.00975709338583
0.0209844658943
0.0309130996621
0.038107574862
0.0430381443628
0.0463058531467
0.0483884034009
0.0496672513583
0.050422439748
0.0508573921224
0.0511054656931
0.0512512977978
0.0513439072912
0.0514108902992
0.0514664104171
0.0515177484805
0.0515682286999
0.0516193575456
0.0516716437691
0.0517251714114
0.0517799177894
0.0518355350203
0.0518915194017
0.051947172716
0.052001272873
0.052051541891
0.0520934747026
0.0521183580073
0.0521092169904
0.0520351513943
0.0518409662988
0.0514364400996
0.0506776683886
0.0493583001172
0.047185304075
0.0437877455694
0.0386776580457
0.0312902923082
0.0211239087926
0.00973976187738
0.00977444388387
0.0211829447291
0.0313579464408
0.0388073115517
0.0439712551135
0.047434641978
0.0496699441848
0.0510601818726
0.0518918253559
0.0523768219749
0.0526562168575
0.0528213534451
0.0529260978956
0.0530011622108
0.0530626865011
0.0531189601124
0.0531738974481
0.05322924454
0.0532856471459
0.0533432633413
0.0534020439356
0.0534616539349
0.0535215285397
0.0535809080266
0.0536383957827
0.0536913884295
0.0537347376847
0.0537585240253
0.0537436165405
0.0536556899964
0.05343440613
0.0529826190592
0.0521480298296
0.0507158782678
0.0483863419443
0.044786402573
0.0394327006133
0.0317757047316
0.02133916535
0.00975729223322
0.00978407584622
0.0212864728736
0.0315957756112
0.0391941541148
0.0445021181169
0.0480919188555
0.0504287657399
0.0518955313235
0.0527813689424
0.0533026235519
0.0536053282615
0.0537853228548
0.0538996925461
0.0539813838123
0.0540479029952
0.0541083274102
0.0541669830271
0.0542258626294
0.0542857239195
0.0543467445461
0.0544088715366
0.0544717697462
0.0545348537294
0.0545972911586
0.0546575835507
0.0547128903721
0.0547575224395
0.0547806403416
0.0547615793107
0.0546635794727
0.0544227104312
0.0539371863526
0.0530493891396
0.0515397163317
0.0491051496678
0.045373399946
0.0398664963088
0.0320469254332
0.021455410414
0.009766609074
0.00979059380168
0.0213441803925
0.0317244937555
0.0394064885045
0.0447994693331
0.0484668385456
0.0508680980557
0.0523850806292
0.053307244452
0.0538535062565
0.054172852952
0.0543638586734
0.0544856496089
0.0545726491517
0.0546432981952
0.0547072345811
0.0547691181267
0.0548310352833
0.0548938072786
0.054957707622
0.0550226373829
0.055088256468
0.0551539823362
0.0552189832157
0.0552816185006
0.0553388460991
0.0553846607797
0.0554075869041
0.0553858924119
0.0552811654712
0.0550270864905
0.0545189331154
0.0535958568796
0.0520356162805
0.0495339120829
0.0457199063279
0.0401200702354
0.0322045068502
0.0215233757008
0.00977256723929
0.00979590626757
0.0213802267796
0.0317977435588
0.0395257362201
0.044967199277
0.0486803588641
0.0511210778582
0.0526695411737
0.0536150806951
0.0541779860941
0.0545088073252
0.0547076772345
0.0548349855869
0.0549260967707
0.0550000889257
0.0550669001768
0.0551313475433
0.0551957279213
0.0552608464147
0.0553269999551
0.0553940999847
0.0554618130059
0.0555295797552
0.0555964880154
0.0556608615211
0.0557195489554
0.0557663100154
0.0557892569048
0.0557659582701
0.0556569195049
0.0553942974996
0.054871593702
0.0539260171449
0.0523340046037
0.0497907811537
0.0459268870928
0.0402717472328
0.0322995881002
0.0215651613316
0.00977669326849
0.00980095737527
0.0214074098715
0.0318453644949
0.0395986871558
0.045067649886
0.0488078050194
0.051272192026
0.0528401058771
0.053800522252
0.054374430153
0.0547130926643
0.0549175773928
0.0550490510737
0.0551434080648
0.0552200249336
0.0552891435284
0.0553557256605
0.055422042051
0.0554889957011
0.0555568657512
0.0556256134208
0.0556948699525
0.055764051456
0.0558322652572
0.0558978272274
0.0559575135687
0.0560049339817
0.0560279431348
0.0560036482195
0.0558918859529
0.0556238515041
0.0550919953028
0.0541323570801
0.0525207633975
0.0499521854018
0.0460581925938
0.0403698151445
0.0323628882336
0.0215941359798
0.00978002851336
0.0098060842066
0.0214312301313
0.0318815152808
0.0396497637742
0.0451349682229
0.0488914587717
0.0513702366684
0.0529503909293
0.0539204545562
0.0545017312888
0.0548458460929
0.0550544640755
0.0551890512048
0.0552858792831
0.0553646193218
0.0554355704675
0.0555037851371
0.0555715629664
0.0556398307954
0.0557089267065
0.0557787384719
0.0558489366254
0.0559189532918
0.0559878974434
0.0560540865224
0.0561142646836
0.0561619586934
0.0561848595215
0.0561597822353
0.0560461404499
0.0557745273749
0.0552367570712
0.0542681599165
0.052644249344
0.0500598393703
0.0461471208244
0.0404378347334
0.0324078944714
0.0216149243655
0.00978274061872
0.00981145550589
0.0214544314771
0.0319135559341
0.0396918916699
0.0451876010248
0.0489545275209
0.0514427037828
0.0530310731762
0.0540077130412
0.054594195604
0.0549423275161
0.055154001283
0.055290986484
0.0553898345756
0.0554701973246
0.0555425735439
0.0556119707852
0.0556807666961
0.0557499010373
0.0558196922137
0.0558900327013
0.0559606039801
0.0560308985046
0.0561000247963
0.0561662998127
0.0562264613151
0.0562739949824
0.056296489571
0.0562705630045
0.0561553749978
0.0558811014237
0.0553391780628
0.0543644412844
0.0527322981256
0.0501373431486
0.0462121369851
0.0404886158164
0.0324418468417
0.0216302401968
0.00978559865591
0.00981711626801
0.0214780408667
0.0319446250072
0.0397307790437
0.0452342203963
0.0490088001875
0.0515037820666
0.0530981700529
0.0540796843607
0.0546701467779
0.0550213179206
0.0552354087401
0.055374351583
0.0554747122974
0.0555563422881
0.055629692825
0.0556998606527
0.0557692465427
0.0558387511906
0.0559086961018
0.0559790387761
0.0560494545098
0.056119468618
0.0561882268986
0.0562540507985
0.0563136848773
0.0563605844975
0.056382276782
0.0563552521177
0.0562384885543
0.055961853398
0.0554165523404
0.0544370715356
0.052798765859
0.0501960215625
0.0462616265087
0.0405274579033
0.0324672812378
0.0216419685075
0.00979057997358
0.00982307710879
0.0215025315703
0.0319762008672
0.0397692234679
0.0452791868175
0.0490601266471
0.0515606114383
0.0531598831051
0.0541453619203
0.0547390209068
0.055092698169
0.0553087865403
0.0554492310496
0.0555507714624
0.0556332544214
0.0557072009723
0.0557777483346
0.0558472211077
0.0559165876255
0.0559862033109
0.0560560149296
0.0561257585252
0.0561949748338
0.0562628328423
0.0563276912256
0.0563862961594
0.0564320738678
0.0564525210384
0.0564240283648
0.056305422675
0.0560263541211
0.0554778657924
0.0544941699557
0.0528506389792
0.0502414680641
0.0462996349244
0.0405577269719
0.0324908764004
0.0216618411142
0.00979751856885
0.009829318493
0.0215280176678
0.0320087636155
0.0398084169898
0.0453243643985
0.0491110774225
0.0516164202625
0.0532200016256
0.0542089115638
0.0548053520374
0.0551611769905
0.0553788731947
0.0555204935114
0.0556228370785
0.0557058035791
0.0557799747563
0.0558504008522
0.0559195126171
0.0559882660823
0.0560570644393
0.0561258570377
0.0561944247409
0.0562623402498
0.0563287956404
0.0563921780002
0.0564492428982
0.0564934087589
0.0565121365655
0.0564817246132
0.0563609032672
0.0560791244192
0.0555273310131
0.0545407094678
0.0528940520603
0.0502825213938
0.0463381012555
0.0405952591027
0.0325246638147
0.021689003806
0.00980614203574
0.00983582625588
0.0215544560665
0.0320424474587
0.0398487522914
0.0453704961317
0.0491627124526
0.0516725833747
0.0532801704137
0.0542721899991
0.0548711469919
0.0552287898152
0.055447802703
0.0555902735133
0.055693083395
0.0557761998331
0.0558501294293
0.0559200400389
0.0559883207377
0.0560560131939
0.0561235029148
0.0561908014688
0.0562577063093
0.056323831488
0.0563884017293
0.0564498179003
0.0565048554871
0.056546931179
0.0565634844159
0.0565326272401
0.0564128312596
0.056132661268
0.055582806085
0.0545962590192
0.0529487725216
0.0503351481466
0.0463879802535
0.0406418201237
0.0325651154154
0.0217211240182
0.00981631038769
0.00984256071127
0.0215817141712
0.0320771795734
0.039890194452
0.045417707855
0.0492152633564
0.0517295341954
0.0533409086086
0.054335874658
0.05493708203
0.0552963220315
0.0555163767319
0.0556593951577
0.0557623690995
0.0558451870372
0.0559184925412
0.0559874266288
0.0560544478049
0.0561206114248
0.0561863483875
0.0562516898946
0.056316484087
0.0563803681937
0.0564426032807
0.0565016222161
0.0565551096391
0.0565994095656
0.0566206948791
0.0565940903726
0.0564774725903
0.0561994340439
0.0556495662648
0.0546624735331
0.0530123572883
0.050395603179
0.0464439620518
0.0406931246444
0.0326096375914
0.021756519651
0.00982793999579
0.00984946203474
0.021609605239
0.0321127554329
0.039932628659
0.0454659264221
0.0492687774527
0.0517873352028
0.0534023640363
0.0544000800872
0.055003362987
0.0553639337619
0.0555847486916
0.0557280311319
0.0558307417667
0.0559129077126
0.0559851624801
0.0560527192141
0.0561180521157
0.0561822686613
0.0562458344699
0.0563088150859
0.0563710949102
0.0564323496841
0.0564925174093
0.0565546434387
0.0566142538088
0.0566636370008
0.0566890708566
0.0566656921349
0.0565509066274
0.0562738611923
0.0557234865793
0.0547347349725
0.0530813334189
0.0504604841114
0.0465035100534
0.0407469838637
0.0326560241683
0.0217941453139
0.00984110020344
0.00985650517149
0.0216380627321
0.0321490701637
0.0399759516269
0.0455150261042
0.049323097189
0.0518457929477
0.0534643214996
0.0544646068545
0.0550697183779
0.0554313839744
0.0556527065703
0.0557958778076
0.0558980055012
0.0559791318981
0.0560499797245
0.0561157733836
0.0561790443397
0.0562409491662
0.0563019802775
0.0563622473063
0.0564216890873
0.0564834259591
0.0565502874665
0.0566180376978
0.0566824831764
0.0567357584159
0.0567643032082
0.0567433358593
0.056630031105
0.0563533190925
0.0558020403387
0.0548109169573
0.0531537332033
0.0505279470928
0.0465649524041
0.0408020511176
0.0327034986359
0.0218333763736
0.00985588788279
0.00986370708954
0.0216669953693
0.0321860318891
0.0400198730244
0.0455646487829
0.0493778016079
0.0519044740878
0.0535263308662
0.0545289793041
0.0551357165604
0.0554982610226
0.055719791453
0.0558625606055
0.0559637822398
0.0560435585119
0.056112649325
0.0561763534231
0.0562372362909
0.0562965070797
0.0563546997813
0.0564119930657
0.0564746771795
0.0565436103382
0.0566158193005
0.0566881349452
0.0567563668521
0.056812834193
0.0568440337483
0.0568250086085
0.0567129009616
0.0564362332466
0.0558839085224
0.0548900723179
0.0532287710821
0.0505976429577
0.0466281064
0.040858365223
0.0327518583205
0.0218739094551
0.00987229366556
0.00987100541954
0.0216961571229
0.0322232335525
0.0400639856309
0.0456142994714
0.0494323648238
0.0519628574431
0.0535878295399
0.0545926407163
0.0552008094251
0.0555639703022
0.0557854227356
0.0559275252204
0.0560275486686
0.0561056735892
0.0561727256849
0.0562340473193
0.0562922714386
0.0563486490414
0.0564037962742
0.0564654018286
0.0565350266123
0.0566093103907
0.0566859220673
0.0567620108267
0.0568335198955
0.0568929090478
0.0569265305085
0.0569095319925
0.0567988192657
0.0565223586499
0.0559690432432
0.0549725299385
0.0533069498617
0.050670068545
0.0466935277732
0.0409162569172
0.0328012790928
0.0219156445681
0.00989006924063
0.00987830785017
0.0217252689763
0.0322602949117
0.0401078565245
0.0456634903883
0.0494861708497
0.0520202013305
0.0536480062797
0.0546547430052
0.0552640625582
0.0556275746082
0.055848706068
0.0559898752145
0.0560884522789
0.0561646700613
0.0562294338986
0.0562881449801
0.0563434863851
0.0563967997909
0.0564555936978
0.056524161971
0.056599019606
0.0566775283019
0.0567579313159
0.0568374560432
0.0569120700165
0.0569744998844
0.0570110016188
0.0569964804642
0.0568875754016
0.0566118232421
0.0560577392312
0.0550587567152
0.0533888639118
0.050745989002
0.0467619992638
0.0409764758789
0.0328522140352
0.0219586462498
0.00990893747893
0.00988558136062
0.0217540779628
0.0322968583581
0.0401508560962
0.0457113655456
0.049538197083
0.0520752536314
0.0537054756446
0.0547137621007
0.0553238817764
0.0556874452769
0.0559079947648
0.0560479791062
0.0561448708177
0.0562189664507
0.0562812358744
0.0563371409883
0.0563894428238
0.0564440048328
0.0565100738621
0.0565839733721
0.056662996596
0.0567453177282
0.0568290407488
0.0569119667485
0.05699011884
0.0570561346507
0.0570961393547
0.0570847852852
0.0569783327721
0.056703910643
0.0561496327132
0.0551486118839
0.0534746825703
0.0508258622875
0.0468342785755
0.0410399539597
0.0329055600555
0.0220034660587
0.00992879255669
0.00989278018488
0.0217823040969
0.03233233738
0.0401920293824
0.0457565101659
0.0495865451386
0.0521257772583
0.053757663412
0.0547668417206
0.0553772685416
0.0557404892466
0.0559601351277
0.056098680633
0.0561936594689
0.0562654325043
0.0563250333951
0.056377974703
0.0564284553657
0.0564898934678
0.0565615227074
0.0566396893413
0.0567224588539
0.0568081388822
0.0568953233284
0.0569820131187
0.0570642553449
0.057134542501
0.0571788420214
0.0571714731984
0.0570683146207
0.0567961328061
0.0562424690255
0.0552402446832
0.053563040677
0.0509088987697
0.0469101230015
0.0411071453354
0.0329622767619
0.0220509742105
0.00994969623953
0.00989983742662
0.0218094717211
0.0323656183236
0.0402294641903
0.0457961104737
0.0496275288415
0.0521672810757
0.0537994112255
0.0548083688132
0.0554182695034
0.0557805424633
0.0559988425724
0.0561356199078
0.0562284331125
0.0562976732128
0.0563544209746
0.0564042609608
0.056458609732
0.0565261106634
0.0566019731597
0.0566837250953
0.0567696110092
0.0568585879258
0.0569495408359
0.0570403891219
0.0571273114001
0.0572026101581
0.0572520127842
0.0572495193264
0.057150646834
0.0568818179075
0.0563300585703
0.0553280430782
0.0536491681249
0.0509913686832
0.0469868269405
0.0411763409498
0.0330215624823
0.0221008834361
0.00997152325032
0.009906676884
0.0218347705549
0.0323946821671
0.0402594880262
0.0458247165042
0.0496539697198
0.0521910886174
0.0538208384533
0.0548275871625
0.0554355219201
0.0557958496933
0.0560121217436
0.0561466621526
0.0562369794562
0.056303434375
0.0563571183966
0.0564055658938
0.056466401339
0.0565380575164
0.0566172835814
0.0567019689457
0.0567907746104
0.0568831123387
0.0569779366452
0.0570733619798
0.0571653800028
0.0572462418655
0.0573014419676
0.0573047189359
0.0572112766599
0.0569471454134
0.0563992620946
0.0553999458293
0.0537224659448
0.0510644487352
0.0470578249429
0.0412429265786
0.0330805452823
0.0221515166797
0.00999396660208
0.00991316417273
0.0218563866722
0.0324150835708
0.0402743617931
0.0458312091058
0.04965159177
0.0521802044602
0.053802880473
0.0548038964902
0.0554073778616
0.0557640831044
0.0559772193643
0.056108789255
0.0561961035809
0.0562593937687
0.0563097124747
0.0563607496278
0.0564262463307
0.0565010820024
0.0565827779681
0.0566696470813
0.0567610303899
0.0568564758948
0.0569551851182
0.0570551530388
0.0571524655936
0.0572391585042
0.0573005703639
0.057310267763
0.0572234060882
0.0569659697957
0.0564248599012
0.0554324435978
0.0537619175393
0.0511104921887
0.0471091961011
0.0412972596875
0.0331333997957
0.0222001760998
0.0100165964506
0.00991905271531
0.0218710180844
0.032418244391
0.0402593787836
0.0457946964015
0.0495940441436
0.0521038325572
0.0537113293077
0.0547006844206
0.0552956120467
0.0556459908245
0.0558542650947
0.0559817603355
0.0560653400105
0.0561249313896
0.0561717747111
0.0562276144904
0.0562959372963
0.0563726724164
0.0564557829982
0.0565441213423
0.056637415901
0.0567354134561
0.0568374184434
0.0569415160537
0.0570436810002
0.0571358953
0.0572035043906
0.0572201562745
0.057141225745
0.0568931241608
0.0563633201469
0.055384661699
0.0537305997905
0.051097753972
0.0471157986435
0.0413214424685
0.0331696340941
0.0222426250483
0.0100389005815
0.00992374336157
0.0218709530779
0.0323860411555
0.0401853509685
0.0456756683324
0.049432981486
0.0519067066247
0.0534858235369
0.0544540504432
0.0550340085977
0.0553739036866
0.0555746946365
0.0556964678589
0.0557752277329
0.0558303464407
0.0558760472428
0.0559348188696
0.0560045522923
0.0560818099226
0.0561651362861
0.0562538625174
0.0563480019576
0.0564474710978
0.0565516535944
0.0566587244986
0.0567646153928
0.056861413296
0.0569346751764
0.0569585110873
0.0568891050105
0.0566540002157
0.0561421402822
0.0551877209637
0.0535651470339
0.0509706407658
0.0470319337714
0.0412815298718
0.0331679767929
0.0222692108316
0.0100596213273
0.00992609900645
0.0218418604551
0.0322857497158
0.040001174069
0.0454069216167
0.0490882017647
0.0514988429881
0.0530295088218
0.0539625886206
0.0545183112644
0.0548418792987
0.0550316307477
0.0551455224361
0.0552181134253
0.0552678524598
0.0553134209092
0.0553730820662
0.0554426204221
0.0555188920652
0.0556009242667
0.0556885864129
0.0557820273113
0.0558813034673
0.0559859290165
0.0560940863168
0.0562018937664
0.0563016664072
0.0563795069535
0.0564105310013
0.0563525335166
0.0561352944626
0.055650572233
0.0547354129629
0.053166568272
0.0506406651854
0.046783142761
0.0411206992802
0.0330916721781
0.0222632865138
0.0100768951964
0.00992333958223
0.0217537037107
0.0320551804868
0.0396159573331
0.0448742480276
0.0484279903682
0.0507361293921
0.0521899673224
0.053068645636
0.0535877643338
0.0538873954789
0.0540615451446
0.0541648493973
0.0542296006006
0.0542728400254
0.0543190065042
0.0543781160078
0.0544457125005
0.0545194516124
0.0545986731656
0.0546835514387
0.0547743670671
0.0548713401211
0.0549740462914
0.0550808393048
0.0551880544942
0.0552885491474
0.0553693725512
0.0554073088986
0.0553628001103
0.055169360855
0.0547235469988
0.0538675805991
0.0523828284083
0.0499682444066
0.0462480227093
0.0407416258018
0.0328733129406
0.0221906540378
0.0100862569157
0.00991010295625
0.0215546945096
0.0315930689131
0.0388881568618
0.043906252233
0.0472600590495
0.0494126249224
0.0507529589414
0.051553325028
0.0520210257948
0.0522879780156
0.052441571028
0.0525315167408
0.0525868758993
0.0526239786518
0.0526694060262
0.052726015296
0.0527900716557
0.0528596975827
0.0529344856133
0.0530146977129
0.0531008028957
0.0531930804892
0.0532912683016
0.053393910586
0.0534977386114
0.0535963393255
0.0536782015037
0.0537225378169
0.0536936724333
0.0535307067089
0.0531376154724
0.0523651269841
0.0510029306489
0.0487558964228
0.045249919225
0.0399979035558
0.032407507602
0.0219963715611
0.0100805780027
0.00987479526253
0.0211496723854
0.0307296346245
0.0375947043937
0.0422442617245
0.0453034675066
0.0472346628196
0.0484181472575
0.0491132587276
0.049513675499
0.049739003064
0.0498671597928
0.0499411163988
0.0499856585021
0.0500179091926
0.0500618295457
0.0501151632294
0.0501748067915
0.0502391801257
0.050308203278
0.0503821462219
0.0504615607899
0.0505468454699
0.0506379479177
0.0507336121098
0.050831116131
0.0509249984755
0.0510056021977
0.0510553285039
0.0510436432836
0.0509175176066
0.0505913301771
0.0499285804414
0.0487329828954
0.0467214990228
0.0435277007538
0.0386627652195
0.0315199237636
0.0215794945108
0.0100441705576
0.00979610733926
0.0203910726197
0.0292187085527
0.0354275572238
0.039544330457
0.0421955752815
0.0438316605542
0.0448130151234
0.0453768261088
0.0456957687386
0.04587219148
0.0459713178024
0.0460275889835
0.0460605855928
0.0460892841295
0.0461303389763
0.0461793077508
0.0462335053144
0.0462916620962
0.04635379382
0.0464201505212
0.0464912350623
0.0465675382777
0.0466492822629
0.0467355379311
0.0468240473382
0.0469104578418
0.0469873009579
0.0470407665656
0.0470468106784
0.0469620350429
0.0467149512536
0.0461871189406
0.045203563891
0.0435028765281
0.0407373074538
0.0364278015037
0.0299639250668
0.0207909345085
0.00995259569521
0.00963352056003
0.0190393264446
0.0266888249386
0.0319435643242
0.0353293418934
0.0374471189993
0.0387142941604
0.0394530302067
0.0398652970077
0.0400934656271
0.0402171037859
0.0402857180246
0.0403238196431
0.0403458521688
0.0403741301821
0.0404126686531
0.0404574601632
0.0405061104821
0.0405578520016
0.0406127093048
0.0406709343918
0.0407328713
0.0407989459544
0.040869744537
0.0409448159389
0.0410222641476
0.0410987640365
0.0411691852565
0.0412239803159
0.0412460882545
0.0412035818092
0.0410421356059
0.0406673371481
0.039934739577
0.0386179753876
0.0364057950748
0.0328510139598
0.0273660675357
0.0193867771774
0.00976055455871
0.00932345642447
0.0167561995547
0.0226406362431
0.0265748846451
0.0290124673012
0.0304768142157
0.0313161603783
0.0317871459731
0.0320397776594
0.0321756906698
0.0322469730412
0.032285306658
0.0323049884326
0.0323194875517
0.0323455605386
0.0323798196162
0.0324189380404
0.0324611618516
0.0325056937341
0.0325525206431
0.0326018598972
0.0326538579441
0.0327086443991
0.0327670271182
0.0328292116698
0.0328934697749
0.0329574669803
0.0330183094708
0.0330703931185
0.0331038270969
0.0330985856583
0.0330199231698
0.0328028828386
0.0323439835507
0.0314697937995
0.0299320131393
0.0273533508859
0.0232202642371
0.0170268544013
0.0094052507411
0.00881422946446
0.0132536319753
0.0165811272772
0.0187557271278
0.0200277279868
0.0207465655305
0.0211327559712
0.021338148668
0.0214419084895
0.0214954948202
0.0215215357721
0.0215339820026
0.0215388704323
0.021552071671
0.0215745168722
0.0216030516641
0.0216357394662
0.0216713258279
0.0217090588478
0.0217488000721
0.0217906488932
0.0218345120201
0.0218800642689
0.0219276990348
0.0219782292472
0.0220302631292
0.0220822583604
0.0221329926124
0.0221800608001
0.0222194278063
0.0222421091428
0.0222325716502
0.0221582290139
0.0219655064903
0.0215545022526
0.020775812069
0.0193832074317
0.0170314152426
0.0134202691917
0.00884333779133
0.00839800329036
0.00877224905061
0.00922480456141
0.00949568443271
0.00963596029154
0.00970552663768
0.00973866781584
0.00975503144729
0.00976277095742
0.00976687900038
0.00976890384591
0.00977014796841
0.00977349640066
0.00977964129765
0.00978819607231
0.0097989243748
0.00981109850278
0.00982457686968
0.00983942951489
0.00985562862461
0.00987306423134
0.00989156405022
0.00991095281787
0.00993117905869
0.00995230526954
0.0099740230698
0.00999598142136
0.0100179501356
0.0100394914245
0.0100601015249
0.0100786733591
0.0100935243003
0.0101004505574
0.0100925857421
0.0100544882144
0.00996170566279
0.00976833395291
0.00941015138644
0.00884105642286
0.00843384424845
0.00883623333551
0.0113804976874
0.0132759073934
0.0144140710875
0.0150548061548
0.0154013972691
0.015582062239
0.0156749609617
0.0157231913165
0.0157504590911
0.0157682817127
0.0157823940843
0.0157953003619
0.0158081403534
0.015821355351
0.0158350863985
0.0158493908557
0.0158642300061
0.0158795213324
0.0158951546884
0.0159110825592
0.0159273826145
0.0159438200913
0.0159602438615
0.0159765829321
0.0159926999791
0.0160084234672
0.0160233786614
0.0160368145162
0.0160472568201
0.0160513591987
0.0160423865288
0.0160063254442
0.0159170895857
0.0157263093797
0.0153525834397
0.0146615620637
0.0134500767104
0.0114653754912
0.00885032381878
0.0113756135428
0.0133641488915
0.0157375442666
0.0172581251035
0.018139663532
0.018624591567
0.0188798021476
0.019009877587
0.0190749543397
0.0191083416513
0.0191269617793
0.0191392575264
0.0191490728474
0.0191581780788
0.0191673037198
0.0191767604274
0.0191866587779
0.0191970178574
0.0192078221886
0.0192190104839
0.0192305448398
0.0192424269553
0.0192545465376
0.0192667852169
0.0192790535849
0.0192912015449
0.0193029650997
0.0193138524278
0.0193227951009
0.0193275635602
0.0193233486121
0.019300456211
0.0192395077832
0.0191048391004
0.0188325262916
0.0183169872711
0.0173905961154
0.0158173460893
0.0133901769607
0.0113496776091
0.0132662746683
0.0157332401988
0.0187794866907
0.0208318196625
0.0220831865734
0.0228061566576
0.0232050312613
0.0234163659929
0.0235243938976
0.0235787041168
0.0236063807589
0.0236216009449
0.0236313581396
0.0236389612189
0.0236459026284
0.0236528690929
0.023660125759
0.0236677962544
0.0236758951489
0.0236844090863
0.0236933187633
0.0237026213785
0.0237122286521
0.0237220257775
0.0237318976811
0.023741618605
0.0237507443503
0.023758371556
0.0237625598894
0.0237593098441
0.0237403896688
0.0236899453024
0.0235782150991
0.0233533645711
0.0229282789912
0.0221673469353
0.0208690377785
0.0187717847302
0.0156910886047
0.0132088416015
0.0144013478662
0.0172512704721
0.0208293015943
0.0233250030753
0.024905388538
0.0258547895765
0.0263996941364
0.0266993905273
0.0268576834525
0.0269388425282
0.0269798959358
0.0270012151091
0.0270133850494
0.0270215630253
0.0270282379264
0.0270345709966
0.0270410290059
0.0270478378586
0.0270550836279
0.0270627671697
0.0270708992735
0.0270794516568
0.0270883433297
0.0270974567342
0.0271066127984
0.0271154658961
0.0271233134135
0.0271287014458
0.0271285839615
0.0271168413408
0.027081433981
0.0270000567245
0.0268329096857
0.0265137914984
0.0259370143072
0.0249457975507
0.0233184122912
0.0207837203021
0.0171802109808
0.0143278863681
0.0150405024386
0.0181313559662
0.0220791411618
0.0249038349047
0.0267433328344
0.0278813360017
0.0285546677309
0.0289363931488
0.0291440193361
0.0292531915367
0.0293093204149
0.0293384140394
0.0293544396484
0.029364497672
0.0293721321368
0.0293789903718
0.0293858053291
0.0293929229953
0.0294004777224
0.029408503983
0.0294170126679
0.0294259677527
0.0294352733596
0.0294447910544
0.0294542719384
0.0294632234864
0.0294706435713
0.0294744719384
0.0294705047536
0.0294505018486
0.029398805162
0.0292873682304
0.0290679992343
0.0286634372384
0.0279550301641
0.0267732315533
0.0248868988921
0.0220259051603
0.0180539971519
0.0149642634852
0.0153865912783
0.0186156462136
0.0228013601055
0.0258524021002
0.0278804881621
0.0291627821197
0.0299389826474
0.0303894274417
0.0306403358393
0.0307752178219
0.0308459994777
0.0308832024617
0.0309036741134
0.0309163420049
0.0309256570955
0.0309337658734
0.0309416915439
0.0309498795937
0.0309585125013
0.0309676517665
0.0309773044992
0.0309874263075
0.0309979033257