/*--------------------------------*- C++ -*----------------------------------*\
| =========                 |                                                 |
| \\      /  F ield         | foam-extend: Open Source CFD                    |
|  \\    /   O peration     | Version:     4.1                                |
|   \\  /    A nd           | Web:         http://www.foam-extend.org         |
|    \\/     M anipulation  |                                                 |
\*---------------------------------------------------------------------------*/
FoamFile
{
    version     2.0;
    format      ascii;
    class       volScalarField;
    location    "0.8";
    object      k;
}
// * * * * * * * * * * * * * * * * * * * * * * * * * * * * * * * * * * * * * //

dimensions      [0 2 -2 0 0 0 0];

internalField   nonuniform List<scalar> 
96000
(
0.00401710903969
0.00413916020316
0.00428760975153
0.00437512239244
0.00442005781624
0.00444223546173
0.00445301917385
0.00445846121702
0.00446144366713
0.00446341801798
0.00446499494484
0.00446647348493
0.00446796457582
0.00446952179197
0.0044711594793
0.00447288108931
0.00447468464628
0.00447656368472
0.00447850891671
0.00448049959036
0.00448252904377
0.00448461824074
0.00448672575095
0.00448883257294
0.00449093495186
0.00449301706036
0.0044950619608
0.00449704423828
0.00449891964971
0.00450061247615
0.00450193845415
0.00450253469988
0.00450154535258
0.00449730180562
0.0044862410025
0.00446176119873
0.00441130330722
0.00431465772867
0.00415390543401
0.00401962125483
0.00413879710355
0.00413143900634
0.00482346355071
0.00524463863306
0.00548254816787
0.00561373724473
0.00568368606929
0.00572033301724
0.00573935402931
0.00574980561076
0.00575617560219
0.00576084586374
0.00576484794772
0.00576870300825
0.00577260672294
0.00577665363174
0.0057808679339
0.00578525076815
0.00578979418605
0.00579445920875
0.0057992364798
0.00580412336656
0.00580907223619
0.00581403284195
0.00581897658263
0.00582385124268
0.00582855942656
0.00583295631574
0.00583671722565
0.00583920972383
0.00583904199005
0.00583357327315
0.00581737919202
0.00578100100438
0.00570709482317
0.0055679675121
0.0053167579643
0.00487982496245
0.00416981493633
0.00414114159825
0.00428663382568
0.00482235607045
0.00592296389086
0.00659858187709
0.00699872113064
0.00723157938135
0.00736279555633
0.00743476244393
0.00747311460888
0.00749372182367
0.00750526935495
0.00751254911458
0.00751793047419
0.00752259348354
0.00752705464416
0.00753157182756
0.00753623254286
0.00754107557479
0.00754609358423
0.00755126127834
0.00755656753833
0.00756200764421
0.0075675258418
0.00757306260422
0.00757856723864
0.00758394346559
0.00758901256276
0.00759343973919
0.0075965065407
0.00759682395762
0.00759150855307
0.00757531351802
0.00753836745436
0.00746440683067
0.00732593291909
0.00708134054933
0.00666364739014
0.00596850193577
0.00484597321324
0.00428456122012
0.00437378765258
0.005243132832
0.00659816479233
0.00744810932793
0.00796925335256
0.00828427277459
0.00846909861131
0.00857440329451
0.00863245759766
0.0086642030948
0.00868179773315
0.0086923268509
0.00869951839601
0.00870525878271
0.00871047380347
0.00871560903786
0.00872082736354
0.00872621006059
0.00873177309705
0.00873749471154
0.00874337320214
0.00874938411446
0.00875546783496
0.00876156416121
0.0087675882567
0.00877339126368
0.00877868581472
0.00878291340717
0.00878491559339
0.00878248246512
0.00877129306199
0.00874373742102
0.00868636174199
0.00857792084195
0.00838437806166
0.00805615676217
0.00751586143146
0.00664514396255
0.00526449622104
0.00436961457524
0.00441855125922
0.00548083148791
0.00699808341952
0.00796903737735
0.00858001825305
0.00895972527143
0.00918920239178
0.00932383933597
0.00940019585582
0.00944282116281
0.00946662006744
0.00948063913122
0.00948980397981
0.0094967361492
0.00950277154965
0.00950853943157
0.00951431562292
0.00952022663949
0.00952630662024
0.0095325478602
0.0095389469554
0.00954547130047
0.00955205564398
0.00955863122808
0.00956508306332
0.00957120433271
0.00957658896927
0.00958044274459
0.00958116908732
0.00957577600408
0.00955865063124
0.00952021347825
0.00944422819914
0.0093059063544
0.00906699237007
0.00867334459656
0.00804229117661
0.00704948317011
0.00550315494313
0.00441362829355
0.00444067290044
0.00561200041682
0.00723095246869
0.00828408642219
0.00895977514862
0.00938841458722
0.00965318500633
0.00981201825682
0.00990414646366
0.00995649897369
0.00998610289266
0.0100035048563
0.0100146464263
0.0100228309489
0.0100297249149
0.0100361609201
0.0100425322638
0.0100490021373
0.0100556257623
0.0100624077107
0.0100693414593
0.0100763902637
0.0100834847073
0.0100905448191
0.0100974238469
0.0101038619459
0.0101093339433
0.0101128258302
0.0101123415036
0.0101042069288
0.0100817320853
0.0100337786581
0.0099420579852
0.00977934351463
0.00950475883984
0.00906167267361
0.00836505867538
0.00728873200821
0.00563706891516
0.0044356223253
0.00445145792707
0.00568203210834
0.00736230101493
0.00846905693965
0.00918943093445
0.00965339101248
0.00994461319994
0.0101222475663
0.0102269835802
0.0102874046884
0.0103219613091
0.0103423237113
0.010355251128
0.0103645660247
0.0103722427265
0.0103792997046
0.0103862058366
0.0103931747353
0.0104002804038
0.0104075369273
0.010414941698
0.0104224488956
0.0104299901041
0.0104374697077
0.01044471843
0.0104514202841
0.010456950404
0.0104601048448
0.0104585490922
0.0104480544947
0.0104210911726
0.0103653555208
0.0102611037547
0.0100795238972
0.00977820097896
0.00929934027934
0.00855721890445
0.00742585092507
0.00570960546155
0.00444634221503
0.00445694514392
0.00571887789113
0.00743454345153
0.00857469808493
0.00932444522551
0.00981261300298
0.010122656079
0.0103140655685
0.0104283281728
0.0104950360607
0.0105335561532
0.010556365985
0.0105708220889
0.0105811378157
0.0105895384116
0.0105971735368
0.0106045893867
0.0106120322656
0.0106195947825
0.0106273011947
0.0106351462022
0.0106430856166
0.0106510440049
0.0106589178618
0.0106665156133
0.0106734791438
0.0106791010824
0.010682024521
0.0106796460708
0.0106673159958
0.01063688478
0.0105752282617
0.0104616257038
0.0102662833563
0.00994595773107
0.00944243480713
0.00867010886257
0.00750388500272
0.00574918481069
0.00445187659862
0.00445998823727
0.00573814687936
0.00747325989152
0.00863317660625
0.00940126849696
0.00990524106025
0.0102279119921
0.0104288559961
0.01054990974
0.0106211949006
0.0106626740309
0.010687370103
0.0107030387983
0.0107141743685
0.0107231769765
0.0107312988097
0.0107391406582
0.0107469813815
0.0107549286647
0.0107630102127
0.0107712207647
0.0107795164461
0.0107878194298
0.010796017132
0.0108039045028
0.0108110925549
0.0108168050275
0.0108195682951
0.0108165868249
0.0108029108439
0.0107699567055
0.0107040486439
0.0105838442412
0.0103789804858
0.0100458123295
0.00952609916628
0.00873462424233
0.00754722744877
0.00577038724743
0.00445478980413
0.00446203572366
0.00574889823186
0.00749429182299
0.00866538975238
0.00944442101207
0.00995818846847
0.010288943234
0.0104961918172
0.0106218293423
0.0106962871797
0.0107398840998
0.0107659774848
0.0107825776475
0.0107943658305
0.0108038625576
0.0108123931798
0.010820602143
0.0108287821661
0.0108370501127
0.0108454457704
0.0108539588085
0.0108625450979
0.0108711273858
0.0108795926099
0.01088771813
0.01089508915
0.0109008883138
0.0109035610112
0.0109001776976
0.0108855845968
0.0108509084783
0.0107821240053
0.010657511032
0.0104463971253
0.0101049732859
0.00957510928018
0.00877198870957
0.00757210046165
0.00578255698606
0.00445661501962
0.0044636914607
0.00575558978484
0.00750628189067
0.00868353271302
0.00946883605111
0.00998842806835
0.0103241676591
0.0105353944598
0.0106639966333
0.0107405714311
0.0107856272627
0.0108127135429
0.0108299989954
0.0108422847492
0.0108521733668
0.0108610307333
0.0108695232629
0.0108779701696
0.0108864876347
0.0108951191258
0.0109038557357
0.0109126543756
0.0109214408541
0.0109300926164
0.0109383822099
0.0109458805931
0.0109517401817
0.0109543537726
0.0109507038564
0.0109355029806
0.0108996931575
0.0108290382837
0.0107015923173
0.0104865312257
0.0101399873028
0.00960396588393
0.0087939444092
0.00758676083961
0.00578979403839
0.00445783872317
0.00446525638682
0.00576059913484
0.00751406078832
0.00869464273217
0.00948348438083
0.0100065059142
0.0103452374254
0.0105589240292
0.0106894112397
0.0107673800728
0.0108134248704
0.0108412101065
0.0108590017653
0.0108716692629
0.0108818551992
0.0108909644493
0.0108996826116
0.010908327436
0.0109170272848
0.0109258243085
0.0109347157034
0.0109436546714
0.0109525645954
0.0109613252814
0.0109697081563
0.0109772749204
0.0109831587924
0.0109857198647
0.0109818829799
0.0109662785598
0.0109297328508
0.0108578869199
0.010728661423
0.0105111678404
0.0101615130866
0.00962181692517
0.00880772614592
0.00759617525854
0.00579458378793
0.00445879536444
0.00446683856145
0.00576495249759
0.00751993280872
0.00870239686699
0.0094932822527
0.0100183502647
0.0103588842823
0.0105741056634
0.0107058031033
0.0107846936254
0.0108314134215
0.0108596995987
0.0108778568013
0.0108908024012
0.0109012163537
0.0109105125742
0.0109193888408
0.010928167235
0.0109369796799
0.0109458756999
0.0109548444284
0.0109638440873
0.0109728003929
0.01098159369
0.0109899957099
0.0109975641643
0.0110034217738
0.0110059082031
0.0110019122
0.0109860131458
0.0109489660492
0.0108763399946
0.0107459776391
0.0105269629426
0.0101753922227
0.00963346029579
0.00881689184204
0.00760254915459
0.00579780569263
0.00445954232838
0.00446849240278
0.00576916588192
0.00752510116622
0.00870875045585
0.00950089809673
0.0100272347481
0.0103689175032
0.0105851474559
0.0107176523292
0.0107971781409
0.0108443799352
0.0108730226965
0.0108914478217
0.0109046074078
0.0109151811165
0.0109246074993
0.0109335802731
0.0109424312785
0.0109512946437
0.0109602182551
0.0109691921108
0.0109781763637
0.0109871043043
0.0109958566926
0.0110042055328
0.0110117079316
0.0110174816562
0.0110198539898
0.0110156899082
0.0109995392141
0.010962108883
0.0108889277132
0.0107577865526
0.0105377669856
0.0101849484862
0.00964157403713
0.00882339023743
0.00760707660154
0.00579997949359
0.00446045956733
0.00447023245617
0.00577343288421
0.0075300810113
0.00871457680152
0.00950759961663
0.0100348274287
0.0103773120545
0.0105942582824
0.0107273430894
0.0108073382679
0.0108548904641
0.010883801431
0.0109024316283
0.0109157362183
0.0109264189313
0.0109359140201
0.010944926182
0.0109537906421
0.01096263771
0.0109715162199
0.0109804241594
0.0109893216359
0.010998146513
0.0110067844125
0.0110150083246
0.0110223765901
0.011028003573
0.0110302094929
0.0110258445414
0.011009438239
0.0109716630941
0.0108980258927
0.0107662828153
0.0105455191129
0.0101917980334
0.00964739417024
0.00882804698057
0.00761019555759
0.00580193227632
0.0044620571746
0.00447206241088
0.00577784354634
0.0075351167668
0.00872030537245
0.00951402509082
0.010041961209
0.0103850685516
0.0106025760969
0.0107361159479
0.0108164741966
0.0108643022598
0.0108934219526
0.0109121948553
0.01092559686
0.0109363319255
0.0109458430431
0.0109548402547
0.0109636507094
0.010972413168
0.0109811811061
0.0109899518787
0.010998693311
0.011007345872
0.0110157984908
0.0110238291033
0.0110309967499
0.0110364126435
0.0110383940246
0.0110337798972
0.0110170834537
0.0109789542168
0.0109048855095
0.0107726071779
0.0105512153668
0.0101967588703
0.00965167278187
0.00883192456488
0.00761388962224
0.00580557921859
0.00446424450028
0.00447397628322
0.00578241934227
0.00754028868525
0.00872611780388
0.00952044827832
0.0100490048284
0.0103926428757
0.0106106305424
0.0107445513779
0.0108252141177
0.0108732671201
0.0109025418704
0.0109214114993
0.0109348592289
0.010945595596
0.0109550712698
0.0109639870259
0.0109726828797
0.0109812970531
0.0109898891775
0.0109984575821
0.0110069761671
0.0110153897407
0.0110235907053
0.01103136097
0.0110382611669
0.0110434020815
0.0110450980926
0.0110401780048
0.0110231453283
0.010984717957
0.0109104774414
0.0107780922801
0.0105565719376
0.0102021637562
0.00965701553735
0.00883732545662
0.00761911714117
0.00581042832257
0.00446693708326
0.00447596965038
0.0057871536145
0.00754562020502
0.00873207595097
0.00952697976662
0.010056112314
0.0104002314709
0.0106186543743
0.0107529105694
0.0108338393285
0.0108820718362
0.0109114607547
0.0109303822852
0.010943829376
0.0109545208104
0.0109638994265
0.0109726801731
0.0109811990832
0.0109896051181
0.010997956642
0.0110062599235
0.0110144916691
0.0110226022895
0.011030488714
0.0110379350875
0.0110445063352
0.0110493138504
0.0110509511775
0.0110462885302
0.0110296660573
0.0109916189616
0.0109175928261
0.0107852194846
0.0105636328625
0.0102090494071
0.00966370820939
0.00884385484882
0.00762525671527
0.00581608070337
0.00447009014476
0.00447803024415
0.00579202266299
0.00755110024002
0.0087381765749
0.00953363993967
0.0100633199221
0.010407897764
0.0106267240295
0.0107612905722
0.0108424487117
0.0108908292275
0.0109202944256
0.0109392263649
0.010952631055
0.0109632186833
0.0109724486221
0.0109810336995
0.0109893187466
0.0109974553526
0.0110055078887
0.0110134858445
0.0110213726187
0.0110291221849
0.0110366375883
0.0110437103785
0.0110505016024
0.0110559652612
0.0110582580609
0.0110540718582
0.0110378032529
0.010999988975
0.0109259573642
0.0107935303147
0.0105716777897
0.0102168141016
0.00967109985409
0.00885094898307
0.00763192630123
0.00582224753306
0.00447367622475
0.00448013964918
0.00579699317951
0.00755669746337
0.00874440341431
0.00954042015715
0.0100706356036
0.010415653297
0.0106348623699
0.0107697114731
0.0108510735813
0.0108995659541
0.0109290690915
0.0109479725176
0.0109612790493
0.0109717153709
0.0109807407687
0.0109890772418
0.0109970725336
0.0110048852349
0.0110125847486
0.0110201854238
0.0110276760628
0.0110350189577
0.0110426301511
0.011050538054
0.0110580246127
0.0110640620865
0.0110668187133
0.0110629861322
0.0110469097395
0.0110091944141
0.0109350964245
0.0108024877449
0.0105802962942
0.0102250463737
0.00967886892405
0.00885831505886
0.00763880747176
0.00582875033803
0.00447771381751
0.00448229032261
0.00580205356759
0.00756239584549
0.00875074201244
0.00954730348808
0.0100780392539
0.0104234739472
0.0106430428504
0.0107781489601
0.0108596817926
0.01090825378
0.010937760375
0.010956586432
0.0109697521061
0.0109799866567
0.0109887606444
0.0109967985297
0.0110044557242
0.0110118977164
0.0110191979955
0.0110263778594
0.0110335495522
0.0110414876556
0.0110499914782
0.0110585387167
0.0110665678178
0.0110730369899
0.01107613288
0.011072556645
0.0110566286939
0.0110189335552
0.0109447223904
0.0108118496778
0.0105892633581
0.0102335316478
0.00968681443751
0.00886578150055
0.00764579063551
0.00583548468132
0.00448223035785
0.00448448755669
0.00580718825889
0.00756818054494
0.00875715117834
0.00955424101894
0.0100854749153
0.0104313028081
0.0106512072538
0.0107865422748
0.0108682181294
0.0109168403943
0.0109463112459
0.0109650215782
0.0109780043013
0.0109879964246
0.0109964740357
0.0110041713265
0.0110114489718
0.0110184797787
0.011025344352
0.0110323205782
0.0110403587023
0.0110491146133
0.0110582256832
0.0110672829725
0.0110757306223
0.0110825478981
0.0110859285735
0.0110825546639
0.0110667436583
0.0110290358995
0.010954696255
0.0108215215679
0.0105985036712
0.0102422449684
0.00969492881483
0.00887336467601
0.00765285502239
0.00584240299192
0.00448722181991
0.00448671217134
0.00581235321418
0.00757398909364
0.00876357158365
0.00956116409744
0.0100928712609
0.010439069742
0.0106592809567
0.0107948178205
0.0108766102635
0.0109252484771
0.0109546465116
0.0109732065085
0.0109859685822
0.0109956797244
0.0110038249423
0.0110111448563
0.0110180093009
0.0110245982187
0.0110312612817
0.0110391590972
0.0110479887249
0.0110573493706
0.0110669512253
0.011076425675
0.0110852331157
0.0110923686121
0.0110960105385
0.0110928524341
0.0110771855012
0.0110394883957
0.0109650312665
0.0108315630124
0.0106080985448
0.010251269204
0.00970330282466
0.00888112742593
0.00766003944554
0.00584949549307
0.00449261609542
0.00448893609494
0.00581749949333
0.00757976272709
0.00876994022619
0.00956800376398
0.010100143435
0.0104466745371
0.0106671549439
0.0108028617674
0.0108847341351
0.0109333536855
0.010962647164
0.0109810226387
0.0109935322649
0.0110029301447
0.0110107118914
0.0110176263847
0.0110240511018
0.0110303260824
0.0110378800064
0.0110465715317
0.0110559917484
0.0110658237936
0.0110758446031
0.0110856987485
0.0110948501622
0.0111023238008
0.0111062870716
0.0111034052776
0.011087938956
0.0110503189546
0.0109757783254
0.0108420484122
0.0106181410034
0.0102607203828
0.00971205802113
0.00888918913819
0.00766742386634
0.00585677970273
0.00449833138472
0.00449114935821
0.00582258268592
0.00758544490682
0.00877616465262
0.00957463865227
0.0101071487585
0.0104539454637
0.0106746401059
0.0108104674147
0.0108923740447
0.0109409359725
0.0109700911005
0.0109882500119
0.0110004771674
0.0110095350977
0.0110169283651
0.011023414363
0.0110293853235
0.0110363485392
0.0110447300863
0.0110540235146
0.0110639079491
0.0110741629529
0.0110845521818
0.0110947871952
0.0111043398799
0.0111122246843
0.0111165926582
0.0111140787474
0.0110988999489
0.0110614414565
0.0109868959348
0.010852966634
0.0106286611377
0.0102706683943
0.00972130683943
0.00889769163273
0.00767515355511
0.00586435641686
0.00450433643639
0.00449333815557
0.0058275531187
0.00759094283485
0.00878210224571
0.00958086574105
0.0101136219158
0.0104605729473
0.0106813835405
0.0108172459437
0.0108991224618
0.0109475755701
0.0109765510033
0.0109944610479
0.0110063775186
0.0110150712703
0.0110220556449
0.0110280970778
0.0110342476418
0.0110420719601
0.0110510809454
0.0110608498377
0.0110711492988
0.0110817771693
0.0110925565049
0.0111032229023
0.0111132516729
0.0111216396628
0.0111265177972
0.0111244812162
0.0111097025982
0.0110725269541
0.0109980873041
0.0108640736317
0.0106394785959
0.0102810088012
0.0097310199191
0.00890670369571
0.00768338087348
0.00587238355891
0.00451064977592
0.00449548216598
0.00583232440312
0.00759607737494
0.00878746572792
0.00958627939775
0.0101190446876
0.0104659357995
0.0106866789977
0.0108224325009
0.0109041708342
0.0109524367204
0.0109811756036
0.0109987951164
0.0110103697268
0.0110186742726
0.011025228844
0.0110308894416
0.0110378858328
0.0110463964039
0.0110558771532
0.0110660402627
0.011076683282
0.0110876815099
0.0110988937696
0.0111100477868
0.0111206329958
0.0111296234432
0.0111351205289
0.0111336807999
0.0111194350113
0.0110826909619
0.0110085290022
0.0108746205428
0.0106499515884
0.0102912318978
0.00974082020186
0.00891597990496
0.00769198500484
0.00588081514924
0.00451723319121
0.00449755806977
0.00583674910093
0.00760052235904
0.00879170318864
0.00959009491336
0.0101224108583
0.0104688375597
0.0106891776125
0.010824566963
0.010905981723
0.0109539318594
0.010982346795
0.0109996166223
0.0110108088137
0.0110186944133
0.0110247970539
0.0110306926945
0.0110384177653
0.0110473909962
0.0110572387504
0.0110677212913
0.0110786876055
0.0110900688156
0.0111017341343
0.011113434093
0.0111246359497
0.0111343060762
0.0111405175454
0.0111397953461
0.0111262349685
0.0110901027305
0.0110164760399
0.0108829966761
0.0106586516589
0.010300131257
0.00974978393912
0.00892484605682
0.00770051867791
0.00588935893275
0.00452399526157
0.00449952377511
0.00584049354849
0.0076035592278
0.00879365374459
0.00959071615184
0.0101217264663
0.01046694484
0.0106862877175
0.0108208655435
0.0109016397175
0.0109490598696
0.0109770099172
0.0109938378881
0.0110045855221
0.0110120072771
0.0110176257385
0.0110242060658
0.0110324514045
0.0110417685191
0.0110518786922
0.0110625951595
0.0110738485639
0.011085589373
0.0110977162067
0.0111099666859
0.011121817853
0.0111322103909
0.0111391981298
0.0111392864226
0.0111265676734
0.0110913077454
0.0110185897734
0.0108860731343
0.0106627538167
0.0103052925241
0.0097559560211
0.00893188395041
0.00770806165612
0.00589752971678
0.00453080483326
0.00450130214822
0.0058429501646
0.00760380782734
0.00879112064493
0.00958515926956
0.0101133292317
0.0104560479722
0.0106733803525
0.0108064027393
0.0108860197117
0.0109325682613
0.0109598359088
0.0109760845434
0.0109862987179
0.0109931949743
0.0109986828508
0.0110058214949
0.0110143724283
0.0110238842786
0.0110341353482
0.0110450048815
0.0110564719211
0.01106851241
0.0110810385361
0.0110937983302
0.0111062558967
0.0111173449116
0.0111251205831
0.0111260998983
0.0111144054485
0.0110803596914
0.0110091228903
0.0108784234449
0.0106573064426
0.0103023875177
0.00975581071851
0.00893446994766
0.00771295670069
0.00590456261968
0.00453750461372
0.00450270481171
0.00584270508989
0.00759836392075
0.00877976201974
0.00956780024918
0.0100905216716
0.0104286151391
0.0106423099183
0.0107726049125
0.010850266704
0.0108954248167
0.0109216836937
0.0109371500706
0.0109467001801
0.0109529816532
0.0109586307899
0.0109660828056
0.0109747730808
0.0109843222341
0.010994578217
0.0110054795441
0.0110170414587
0.0110292617554
0.01104206314
0.011055204529
0.0110681451913
0.011079831848
0.0110883467124
0.0110902647312
0.0110798097965
0.0110474454413
0.0109785152974
0.0108509173212
0.0106338289381
0.010283850564
0.00974295792816
0.0089276418268
0.00771185257197
0.00590871809098
0.00454370721367
0.00450337529076
0.00583714265565
0.00758200396233
0.00875199825193
0.00952909108133
0.0100422019094
0.010372384073
0.0105799993832
0.0107058527765
0.0107804205185
0.0108234674286
0.0108482800759
0.0108627018916
0.0108714284506
0.0108769932167
0.0108828970422
0.0108904328408
0.0108990823325
0.0109085015686
0.0109185966614
0.0109293708561
0.0109408582298
0.0109530746466
0.0109659591802
0.0109792728579
0.0109924975492
0.0110046089626
0.011013757209
0.0110166411917
0.0110076824135
0.0109776151888
0.0109121221354
0.0107894427972
0.0105790492861
0.01023762959
0.00970698799302
0.00890310313975
0.00769897358549
0.00590700416711
0.00454883986133
0.00450244528264
0.00582079786333
0.00754481045812
0.00869433249439
0.00945275689375
0.00995005198175
0.0102675966637
0.0104657237002
0.0105848077153
0.0106547773868
0.01069478428
0.0107175960015
0.0107306488447
0.0107383579682
0.0107433080298
0.0107493363493
0.010756799546
0.0107652210116
0.0107743467886
0.0107841216685
0.0107945863638
0.0108057923671
0.0108177762094
0.0108304860102
0.0108437039491
0.0108569397017
0.0108692356013
0.0108788588042
0.0108827123229
0.0108755384867
0.0108485170057
0.0107878975985
0.0106725241428
0.0104724213776
0.0101445938008
0.00963084953139
0.00884660944104
0.00766372309345
0.00589328563396
0.00455152965714
0.00449824873733
0.00578425279769
0.00747056752442
0.0085855706526
0.00931407351425
0.00978691672653
0.0100855090308
0.0102697672175
0.0103792030545
0.0104427797078
0.0104786837047
0.0104988958509
0.0105102516856
0.0105167682348
0.0105212164371
0.0105271500339
0.0105343387693
0.0105423727466
0.010551050642
0.0105603463539
0.0105703125567
0.0105810239459
0.010592526089
0.0106047879118
0.0106176156301
0.0106305683933
0.0106427790171
0.0106526915121
0.010657504674
0.0106524289323
0.0106293056901
0.0105752525248
0.0104700918525
0.0102848186849
0.0099771691803
0.00948935797636
0.00873649557297
0.00758942318574
0.0058576817953
0.00454959078915
0.00448719409825
0.0057100859357
0.00733168151683
0.00839158379229
0.00907469880172
0.0095118334528
0.00978363912022
0.00994883143935
0.0100453542557
0.0101006011565
0.0101313072559
0.0101483289908
0.0101576783649
0.0101628452739
0.0101670053664
0.0101727882121
0.0101796490553
0.0101872350166
0.0101953756195
0.0102040812606
0.0102134057922
0.0102234348417
0.0102342301215
0.0102457878937
0.0102579402718
0.0102703139208
0.010282159182
0.0102921486696
0.0102978700996
0.0102951546561
0.0102767746229
0.0102310612676
0.0101392955831
0.00997408608717
0.00969459727452
0.00924418914766
0.00853842360973
0.00744803943471
0.00578189792773
0.0045382186262
0.00446268881013
0.00557068465657
0.00708663703109
0.00806288317537
0.00868055598333
0.00906824044139
0.00930424942854
0.00944477070259
0.00952510146384
0.00957021117485
0.00959478636374
0.0096081635946
0.00961530100491
0.00961904255851
0.00962309180213
0.0096286192478
0.00963508183143
0.00964215977184
0.00964971222625
0.00965775880771
0.00966634973004
0.00967556492254
0.00968547941608
0.00969612688096
0.00970738128424
0.00971892668114
0.00973015008268
0.00973999670682
0.00974652144955
0.00974634681664
0.00973339481494
0.00969765940953
0.00962249481604
0.00948295787406
0.00924071708268
0.00884159320258
0.00820316999525
0.00719824837857
0.00563817662915
0.00450990496266
0.00441212877921
0.00531912412177
0.00666831329644
0.00752190687485
0.0080487982791
0.00837091989365
0.00856144949096
0.00867183176539
0.00873312828706
0.00876674605493
0.00878460309178
0.00879411046534
0.00879896766028
0.00880172678402
0.00880584632817
0.00881124968197
0.00881743010325
0.00882408357872
0.00883112043371
0.00883855857134
0.00884644681086
0.00885484408724
0.00886381815691
0.00887345593334
0.0088836945931
0.00889426043115
0.00890466691993
0.00891415698068
0.00892132288503
0.00892365949784
0.00891648878014
0.00889186955664
0.00883596886517
0.00872740358572
0.00853190893078
0.00819991183031
0.00765387401013
0.00677302528448
0.00537894094978
0.00445060953998
0.00431535096799
0.00488187148141
0.00597233720058
0.0066501746208
0.00705485353163
0.00729342461499
0.00742896733396
0.00750464259654
0.00754500934947
0.00756645150511
0.00757737265481
0.00758289085296
0.00758534394697
0.00758761543556
0.0075916640232
0.00759684864545
0.00760269397368
0.00760895247343
0.00761551691148
0.00762239534738
0.00762963010402
0.00763725166867
0.00764528594232
0.00765385922597
0.00766300561398
0.00767246215289
0.00768186291571
0.00769074838616
0.00769822966297
0.00770274017784
0.00770111950159
0.00768789783317
0.00765285002297
0.00757958924923
0.00744022151104
0.0071932022481
0.00677095915399
0.00606729070031
0.00493014763782
0.00434029524156
0.00415448345355
0.00417135283704
0.00484821952502
0.00526732285441
0.00550605440803
0.00563933213641
0.00571059174142
0.00574834626591
0.00576727205717
0.00577684140103
0.00578125047597
0.0057830920585
0.00578379593194
0.00578627561154
0.00579028126227
0.00579528993436
0.00580097277516
0.00580711948689
0.00581360676611
0.00582041581698
0.00582756785447
0.00583505186638
0.00584281561674
0.00585093058507
0.00585954007485
0.00586840476679
0.00587725062026
0.00588585736892
0.00589378988718
0.00590031897031
0.00590382225672
0.00590150370238
0.00588750815031
0.00585219427518
0.00577744645545
0.00563546868146
0.00537830429864
0.0049310410357
0.00420308581191
0.00416337800384
0.004019907038
0.00414091603806
0.00428439873117
0.00436952892589
0.00441357365317
0.00443547407169
0.00444593907884
0.00445110350297
0.00445352112011
0.0044547681319
0.00445533943753
0.00445570937333
0.00445680294848
0.00445873480062
0.00446139061024
0.00446469662934
0.00446843732258
0.0044725671188
0.00447710482657
0.00448204199183
0.00448734495062
0.00449296240263
0.00449884174232
0.00450496741833
0.00451135736358
0.0045179188739
0.00452454604456
0.00453116870856
0.00453765301844
0.00454384505023
0.00454940347562
0.00455381166499
0.00455577650586
0.00455319289525
0.00454132983565
0.00451267761559
0.00445301229712
0.00434185991044
0.00416273182026
0.00403150929984
0.00415988091542
0.00493114542906
0.00546968016641
0.00578185408704
0.00595479597146
0.00604781929896
0.00609630621746
0.00612129328759
0.00613428946672
0.00614162513299
0.0061463891012
0.00615012892265
0.00615352437227
0.00615688748137
0.0061603396886
0.00616392130746
0.00616764815159
0.00617151076385
0.00617548801145
0.00617955131398
0.00618368844076
0.00618791928324
0.00619218328491
0.00619644137441
0.00620067488118
0.00620484764589
0.00620891353484
0.00621277249202
0.00621622227925
0.00621886592478
0.00621980729318
0.00621725267881
0.00620748813941
0.00618362189371
0.00613285274112
0.0060334058619
0.00584831243905
0.00551801093693
0.00495627488837
0.0041646805134
0.00492971282169
0.00881625346016
0.0107316568123
0.0118365877878
0.0124795927895
0.0128473769131
0.013051244581
0.0131610188425
0.013218615298
0.0132489843054
0.0132656956644
0.0132760470771
0.0132835774199
0.0132900150012
0.0132961101401
0.0133022020447
0.0133084162657
0.013314789463
0.0133213210494
0.0133279803142
0.0133347520543
0.0133416474258
0.0133486076591
0.0133555549856
0.0133624322079
0.013369121351
0.0133754012873
0.013380821233
0.0133843715635
0.013384006806
0.0133754925702
0.0133507798854
0.013294767004
0.0131814381543
0.0129668479814
0.0125811169035
0.0119116957472
0.0107734420267
0.0088226457881
0.00492300331365
0.00546702115258
0.0107305223534
0.0133476446473
0.0149117300127
0.0158605641297
0.0164283185771
0.0167586704727
0.0169451423186
0.0170472955011
0.0171025527418
0.017132815911
0.0171505789437
0.0171623638508
0.0171715281786
0.0171796728567
0.0171875308053
0.0171954114399
0.0172034413273
0.0172116435377
0.0172200058521
0.0172285156818
0.0172371522347
0.0172458461281
0.0172545027999
0.0172629997968
0.0172711039373
0.0172783468033
0.0172837721601
0.0172854024126
0.0172793427103
0.0172580883507
0.0172080826625
0.0171056578477
0.0169121858079
0.0165663130184
0.0159746649092
0.0149927874573
0.0133890234089
0.0107306030985
0.00545231648707
0.00577845846801
0.0118345153905
0.0149107495396
0.0167995718025
0.0179800111725
0.018709257551
0.01914824899
0.0194047007822
0.0195498627952
0.0196303126278
0.0196747786219
0.0197003338195
0.0197163829512
0.0197280005711
0.0197376993723
0.0197466919859
0.019755539292
0.0197644652633
0.0197735501048
0.0197827982888
0.0197922046568
0.0198017311529
0.0198112965086
0.0198207838047
0.0198299980966
0.0198385650036
0.0198457285968
0.0198499655301
0.0198482544029
0.0198348525049
0.0197991905093
0.0197229539256
0.0195756756301
0.0193096142619
0.0188520002518
0.0180956004857
0.0168789365542
0.0149478733423
0.011828945439
0.00576012454768
0.00595104877336
0.0124769865648
0.0158589838912
0.0179794203434
0.0193344905987
0.0201917161494
0.0207209925874
0.0210383206955
0.0212225846921
0.0213269280962
0.0213853762968
0.0214188342617
0.0214392927888
0.0214534142046
0.0214646418835
0.0214746873537
0.0214843694097
0.0214940402627
0.0215038362949
0.0215137919039
0.0215239041601
0.0215341264004
0.0215443636039
0.021554466645