/*--------------------------------*- C++ -*----------------------------------*\
| =========                 |                                                 |
| \\      /  F ield         | foam-extend: Open Source CFD                    |
|  \\    /   O peration     | Version:     4.1                                |
|   \\  /    A nd           | Web:         http://www.foam-extend.org         |
|    \\/     M anipulation  |                                                 |
\*---------------------------------------------------------------------------*/
FoamFile
{
    version     2.0;
    format      ascii;
    class       volScalarField;
    location    "0.8";
    object      nut;
}
// * * * * * * * * * * * * * * * * * * * * * * * * * * * * * * * * * * * * * //

dimensions      [0 2 -1 0 0 0 0];

internalField   nonuniform List<scalar> 
96000
(
0.000173112207633
0.000175887089938
0.000179156532916
0.000181077404186
0.000182071256717
0.000182567855663
0.000182812481468
0.000182937079987
0.000183005317572
0.000183049908403
0.000183084840661
0.000183117107119
0.000183149338302
0.000183182830388
0.000183217939521
0.000183254769935
0.000183293285161
0.000183333351341
0.000183374768298
0.000183417091558
0.000183460195774
0.000183504524755
0.000183549201903
0.000183593826358
0.000183638320863
0.000183682356039
0.000183725566811
0.000183767402437
0.000183806855194
0.000183842195608
0.000183869191106
0.000183879611507
0.00018385423146
0.000183756198748
0.000183507746959
0.000182966647248
0.000181863013046
0.000179757721571
0.000176228645156
0.000173174438632
0.000175878411642
0.000117556172394
0.00012720060962
0.000132778683472
0.000135870055365
0.000137571508832
0.000138485157243
0.00013896958035
0.000139223864041
0.000139364461295
0.000139449674929
0.000139511150284
0.000139562805765
0.000139611804311
0.000139660875228
0.000139711362248
0.000139763623623
0.000139817708731
0.000139873515892
0.00013993058776
0.000139988830463
0.000140048224451
0.000140108203225
0.000140168155241
0.00014022773445
0.000140286282768
0.000140342576277
0.000140394702129
0.00014043831065
0.000140465061201
0.000140456644502
0.000140378965119
0.00014016279854
0.000139689028209
0.000138739772122
0.000136963134133
0.000133740083655
0.000128006403983
0.000118155319999
0.000175932693933
0.000179134397378
0.000127185827645
0.000141124090126
0.000149096693177
0.000153676342506
0.000156316281981
0.000157807077455
0.000158632624411
0.000159078247742
0.000159320991083
0.000159458110034
0.000159544622397
0.00015960783372
0.000159661791696
0.000159712714893
0.000159763693225
0.000159815825314
0.0001598695896
0.000159924942865
0.00015998162357
0.000160039538287
0.000160098629823
0.000160158320789
0.000160217979413
0.000160277029183
0.000160334383168
0.000160387966974
0.000160433875409
0.000160463738261
0.000160461567075
0.000160394600405
0.000160204158927
0.000159780993961
0.000158946456064
0.00015739636735
0.00015465759724
0.000149920735752
0.000141764709908
0.000127569146092
0.000179093990732
0.000181047991532
0.000132760693545
0.000149093558598
0.00015854015233
0.000164120137248
0.000167444223155
0.000169391153832
0.000170508148842
0.000171131056311
0.000171476380847
0.000171670124096
0.000171786937394
0.000171866316922
0.000171929041859
0.000171985218066
0.000172039795434
0.000172094728933
0.000172150913489
0.00017220855184
0.000172267462918
0.000172327635334
0.000172388841835
0.00017245048754
0.000172511959383
0.000172572365443
0.000172630115835
0.000172682084257
0.000172722210139
0.000172738030713
0.000172706101338
0.000172581151685
0.000172284649525
0.000171678846715
0.000170546730552
0.000168535483008
0.000165110375976
0.000159371806905
0.000149741039186
0.000133114692106
0.000180965815612
0.000182038598558
0.000135851011422
0.000153672484759
0.000164119590383
0.000170423626981
0.000174270561419
0.000176584806138
0.000177948980264
0.000178730313756
0.000179172066417
0.000179421884568
0.00017957036395
0.000179667357991
0.000179740160543
0.000179802638837
0.000179861551328
0.000179919930586
0.000179979133256
0.00018003956265
0.000180101189288
0.000180163995985
0.000180227680973
0.000180291623079
0.0001803551362
0.000180417046688
0.00018047521767
0.000180525409894
0.000180559399392
0.000180560805325
0.000180499396568
0.000180319188881
0.000179925877855
0.000179160613111
0.00017778028734
0.000175401855416
0.000171455691645
0.000164994756793
0.000154362577897
0.000136218439148
0.000181944190487
0.000182534299717
0.000137553389779
0.000156314017478
0.000167445586615
0.000174272696707
0.000178514209056
0.000181116685987
0.000182682496598
0.000183598232235
0.000184124875913
0.000184426204215
0.000184604846348
0.000184719344872
0.000184802727726
0.000184871980057
0.000184935757563
0.000184998139014
0.000185060893271
0.000185124644595
0.000185189495588
0.000185255409775
0.000185322054997
0.000185388785117
0.000185454810443
0.000185518670335
0.000185577717922
0.00018562662856
0.000185655191494
0.000185643531584
0.000185555622701
0.00018532671837
0.000184850293424
0.000183952176328
0.000182371533091
0.000179706549248
0.000175367832065
0.000168384334788
0.000157063791449
0.000137952167833
0.00018243965313
0.000182779124926
0.000138468808968
0.000157807302225
0.00016939527938
0.000176590041077
0.000181120002195
0.0001839403499
0.000185663397292
0.000186686868593
0.000187283739345
0.000187628848383
0.000187833865504
0.000187964080694
0.000188057054508
0.000188132563502
0.000188200919065
0.000188266975541
0.000188332977383
0.000188399752996
0.000188467509616
0.000188536238918
0.000188605551856
0.000188674807257
0.000188743085298
0.000188808702845
0.000188868501851
0.000188916234015
0.00018893997776
0.000188916913147
0.000188806327682
0.000188536661414
0.000187992278195
0.00018698813156
0.000185251764297
0.000182370114241
0.000177743694397
0.00017039138141
0.000158608092492
0.000138893020993
0.000182683759704
0.000182904769077
0.000138956166278
0.000158636640295
0.000170516585347
0.000177958874917
0.000182690609516
0.000185668317124
0.000187508054585
0.000188613572487
0.000189265404021
0.000189645649969
0.000189872409522
0.000190015995265
0.000190117396535
0.000190198608568
0.000190271191414
0.000190340729779
0.000190409814757
0.000190479462006
0.000190549979974
0.000190621357848
0.000190693210545
0.000190764851715
0.000190835282104
0.000190902614257
0.000190963289139
0.000191010293075
0.000191030324851
0.000190998229715
0.000190869724173
0.000190568200184
0.000189971559155
0.000188887387408
0.000187035933906
0.000183997930184
0.000179169598289
0.000171567526108
0.000159484932116
0.000139404765373
0.000182809782653
0.00018297431306
0.000139213747736
0.000159086621845
0.000171144309651
0.000178745344677
0.000183611763716
0.000186697342213
0.000188619195435
0.000189783891508
0.000190476183419
0.000190882807846
0.000191126289276
0.000191280377858
0.000191388534087
0.000191474351986
0.000191550361449
0.000191622686123
0.000191694226506
0.000191766147725
0.000191838813575
0.000191912227061
0.000191986010032
0.000192059455709
0.000192131486924
0.000192200076239
0.000192261365269
0.000192307721775
0.000192324791433
0.000192285717126
0.000192143645632
0.000191818396893
0.000191183483246
0.0001900417416
0.000188109130654
0.000184963311256
0.000179999534729
0.000172235588644
0.000159967226978
0.000139674009998
0.000182874494554
0.000183020426363
0.00013935811657
0.00015933420191
0.000171494807503
0.000179192701661
0.000184144393351
0.000187300334053
0.000189277246893
0.000190482426475
0.000191202970141
0.000191628451838
0.000191884179358
0.000192046132154
0.000192159446066
0.000192248830172
0.000192327509246
0.000192402016442
0.0001924754299
0.000192549023051
0.000192623253668
0.000192698105141
0.000192773204696
0.000192847850814
0.000192920940622
0.000192990307381
0.000193051858429
0.000193097561528
0.000193112323475
0.000193068093332
0.000192916259821
0.000192574239492
0.000191912739813
0.000190731696832
0.000188744745675
0.000185528323393
0.000180478160569
0.000172614372114
0.000160235444999
0.000139820858891
0.000182912793047
0.000183056950739
0.000139447222434
0.000159476224929
0.00017169412345
0.000179448513236
0.000184451856651
0.000187651743835
0.000189663856101
0.00019089543548
0.000191634821974
0.00019207314385
0.000192337350193
0.000192504820209
0.000192621778981
0.000192713688604
0.000192794200129
0.000192870094973
0.000192944663511
0.000193019214579
0.000193094255562
0.000193169783324
0.000193245437104
0.000193320539737
0.000193393928251
0.000193463381433
0.000193524667345
0.000193569471743
0.000193582216201
0.000193534060571
0.000193375242203
0.000193021636992
0.000192342259473
0.000191135329048
0.000189113377014
0.000185852493386
0.000180749338535
0.000172826155375
0.000160382992727
0.000139899456546
0.000182936019188
0.000183090921152
0.000139512684311
0.000159567960309
0.000171816633083
0.000179602949357
0.000184636749212
0.000187863127833
0.000189897024853
0.000191145284622
0.000191896863976
0.000192343617516
0.000192613472658
0.000192784662649
0.00019290406059
0.000192997550157
0.000193079127582
0.000193155760592
0.000193230784618
0.000193305600343
0.00019338073105
0.000193456215844
0.000193531684161
0.000193606456625
0.000193679382762
0.000193748223685
0.000193808661776
0.000193852204857
0.000193862974033
0.00019381162095
0.000193647677225
0.000193286065714
0.000192594835141
0.000191371231411
0.000189327378356
0.000186039334698
0.000180904677659
0.00017294712801
0.000160466798661
0.000139942997377
0.000182952130122
0.000183124901666
0.000139568328025
0.000159636234522
0.000171901503615
0.000179705825284
0.000184757440446
0.000187999591749
0.000190046830167
0.000191305505352
0.000192064825206
0.000192516977234
0.00019279048415
0.000192963983626
0.000193084781562
0.000193179087117
0.00019326103306
0.00019333771044
0.000193412510766
0.000193486878963
0.000193561394429
0.000193636065935
0.000193710562796
0.000193784230993
0.000193855931247
0.000193923426242
0.000193982361538
0.00019402414765
0.00019403272477
0.000193978431744
0.000193810377457
0.000193442915378
0.000192743564533
0.000191509039623
0.000189451374381
0.00018614671435
0.000180993310203
0.000173015751313
0.000160512983431
0.00013996392147
0.000182962696226
0.000183160203984
0.000139621259635
0.000159695249601
0.000171969886494
0.000179784623077
0.000184846831552
0.000188098599131
0.000190154198205
0.000191419444528
0.000192183709396
0.000192639306243
0.000192915033956
0.000193089830506
0.000193211294575
0.000193305713872
0.000193387409441
0.000193463490522
0.000193537424951
0.000193610691547
0.000193683880173
0.000193757013143
0.000193829789049
0.000193901611064
0.000193971354483
0.000194036790445
0.000194093559974
0.000194133030495
0.000194139038853
0.00019408172925
0.000193909980363
0.000193537788788
0.000192832412413
0.00019159025992
0.000189523467194
0.000186208227715
0.000181043250497
0.00017305356664
0.000160536030004
0.000139969716647
0.000182984508421
0.000183197182349
0.000139674166409
0.000159751156952
0.000172031522139
0.000179852785591
0.000184921861021
0.000188179859886
0.000190240977415
0.000191510549676
0.000192278072381
0.00019273580913
0.000193012820329
0.000193188201415
0.000193309641508
0.00019340360285
0.000193484429707
0.000193559314068
0.000193631765143
0.000193703262875
0.000193774419547
0.000193845313568
0.000193915662457
0.000193984915985
0.000194051990623
0.000194114674415
0.000194168624131
0.000194205183465
0.000194208136954
0.000194147517674
0.000193972064522
0.000193595539403
0.000192885098418
0.000191636982207
0.000189563476337
0.00018624080062
0.000181067980463
0.000173070248594
0.000160541834102
0.000139988080634
0.000183022444582
0.000183235943144
0.000139728330792
0.000159806934015
0.000172091248564
0.000179917113826
0.000184991137676
0.000188253554858
0.000190318623728
0.000191591234045
0.000192360953663
0.000192820030175
0.000193097669166
0.000193273008255
0.000193393893989
0.000193486829965
0.000193566235693
0.00019363935571
0.00019370967981
0.00019377875199
0.000193847230599
0.000193915208211
0.000193982463587
0.000194048484146
0.000194112221575
0.000194171507671
0.000194222014612
0.000194255068299
0.000194254439591
0.000194190085523
0.000194010647381
0.000193629754829
0.000192914550063
0.000191661161098
0.000189582061978
0.000186253519094
0.000181079848419
0.0001730930395
0.000160581029021
0.000140035534824
0.000183072182373
0.000183276362622
0.000139784055221
0.000159863588378
0.000172151077377
0.000179980553419
0.000185058550956
0.000188324418572
0.000190392576777
0.000191667463675
0.000192438750422
0.000192898610734
0.000193176334476
0.000193351138352
0.000193470950734
0.000193562339521
0.000193639793396
0.000193710535112
0.000193778142099
0.000193844182122
0.000193909365051
0.000193973808174
0.000194037348745
0.000194099515839
0.0001941593027
0.000194214581258
0.000194261044082
0.000194290022485
0.000194285297566
0.000194216763193
0.000194033014547
0.000193650715592
0.000192940420951
0.000191692676715
0.000189618843821
0.000186298793659
0.000181129895066
0.000173144575641
0.000160634562458
0.000140093891976
0.000183131899882
0.000183318344702
0.000139841303205
0.000159921447688
0.000172211754261
0.00018004433738
0.000185125780993
0.000188394554376
0.000190465304185
0.000191741990039
0.000192514414092
0.000192974604478
0.000193251982943
0.0001934257999
0.000193544071723
0.00019363343844
0.000193708381122
0.000193776218842
0.000193840534141
0.000193902977384
0.000193964274529
0.000194024607058
0.000194083853072
0.000194141595521
0.000194196873443
0.000194247588345
0.00019428951233
0.000194313998332
0.000194314708278
0.000194256744512
0.000194083823763
0.000193709181429
0.000192999341631
0.000191750983087
0.000189676361782
0.000186355308907
0.000181186010387
0.000173201868209
0.000160693691114
0.000140159023298
0.000183200557051
0.000183361626208
0.000139899794966
0.000159980409855
0.000172273306292
0.000180108740209
0.000185193293409
0.000188464682305
0.000190537694033
0.000191815882153
0.000192589086917
0.000193049268403
0.000193325922235
0.000193498340776
0.000193614647417
0.000193701468732
0.000193773402973
0.00019383779097
0.000193898286611
0.000193956585726
0.0001940134688
0.00019406916238
0.000194123604718
0.000194176423568
0.000194226747099
0.000194272625682
0.000194327670478
0.000194367630186
0.000194375156367
0.000194319324612
0.00019414783551
0.000193773804947
0.000193063301482
0.000191813981719
0.000189737524052
0.000186414995398
0.000181244561037
0.000173261131277
0.000160755141831
0.000140227895785
0.000183277483127
0.000183405815311
0.000139959136673
0.000160040171592
0.000172335591911
0.000180173729084
0.000185261206049
0.000188534995787
0.000190610040775
0.00019188945407
0.000192663161534
0.000193122989867
0.000193398546575
0.000193569178437
0.000193683033997
0.00019376685777
0.000193835288208
0.000193895743664
0.00019395192772
0.000194005603061
0.00019405760727
0.000194108218989
0.000194157441123
0.000194205060876
0.000194265926926
0.000194330554438
0.000194389062998
0.000194431788535
0.000194441410176
0.000194386924071
0.000194215795755
0.000193841551249
0.000193129875818
0.000191878826824
0.000189800060052
0.00018647545236
0.000181303418145
0.000173320242181
0.000160816397492
0.000140298676605
0.00018336292239
0.000183450762394
0.000140019203272
0.000160100580108
0.000172398490559
0.000180239166108
0.000185329374863
0.000188605328717
0.000190682163626
0.000191962545117
0.000192736449177
0.000193195610135
0.000193469731221
0.000193638153683
0.00019374915826
0.000193829544338
0.000193894047748
0.000193950138349
0.000194001593455
0.000194050249513
0.000194096995307
0.000194142201664
0.000194190028553
0.000194256992776
0.000194326298636
0.000194394145697
0.000194455191025
0.000194499794208
0.000194510707219
0.000194456948856
0.000194285844667
0.000193910862368
0.000193197690854
0.000191944397119
0.000189862955128
0.000186535686506
0.000181361586756
0.000173378228585
0.000160876680454
0.000140370379711
0.000183457343446
0.000183496586195
0.000140079837603
0.000160161467752
0.000172461634354
0.000180304625401
0.000185397326044
0.000188675200294
0.00019075358373
0.000192034668826
0.000192808501295
0.000193266711063
0.000193539053342
0.000193704920106
0.000193812705744
0.000193889292133
0.000193949489831
0.000194000858519
0.000194047244867
0.000194090561986
0.000194131805681
0.000194180140876
0.000194247357803
0.00019431840257
0.000194390757024
0.000194460934833
0.000194523776025
0.00019456973533
0.000194581601286
0.000194528287452
0.000194357071866
0.000193981177139
0.00019326642658
0.000192010670945
0.000189926331206
0.000186596090795
0.000181419505923
0.000173435574868
0.000160936123009
0.000140442683605
0.000183560622373
0.000183542878639
0.000140140508411
0.000160222218628
0.000172524443395
0.000180369476155
0.000185464413015
0.000188743968665
0.000190823633538
0.000192105165136
0.000192878667633
0.000193335624279
0.000193605868484
0.000193768872382
0.000193873117244
0.000193945582292
0.000194001173517
0.000194047530179
0.000194088590258
0.0001941263742
0.00019417106676
0.000194237048997
0.000194308300469
0.000194382296541
0.000194456867704
0.000194528846938
0.000194593180415
0.000194640385133
0.000194653185245
0.000194600506691
0.000194429455036
0.000194052895623
0.000193336732838
0.000192078628507
0.000189991322943
0.000186657865242
0.00018147842148
0.000173493342912
0.000160995501813
0.000140515774817
0.000183671509276
0.000183589060121
0.000140200659208
0.000160282238091
0.000172586302067
0.000180433045578
0.00018552982801
0.000188810703311
0.000190891297251
0.000192172964968
0.000192945810599
0.000193401206664
0.000193669069838
0.000193828923455
0.000193929359921
0.000193997444432
0.000194048189987
0.000194089327469
0.000194124892588
0.000194162230024
0.000194225777023
0.000194295792303
0.000194369900665
0.000194446042214
0.000194522417829
0.00019459605121
0.000194661923346
0.000194710676927
0.000194724962048
0.000194673507872
0.000194503194205
0.000194126576047
0.000193409403144
0.000192149294149
0.000190059160463
0.000186722431389
0.000181539851251
0.000173553029282
0.000161055963579
0.000140590095066
0.00018378849156
0.000183634928891
0.000140259781514
0.000160340911233
0.000172646279927
0.000180494137081
0.000185592160873
0.000188873738146
0.000190954732306
0.000192236068428
0.000193007843389
0.000193461329432
0.000193726513235
0.000193882948545
0.000193979336908
0.000194042835802
0.000194088558727
0.000194124330553
0.000194154439326
0.000194211751089
0.00019427944242
0.000194352368208
0.000194428568578
0.0001945065796
0.0001945846101
0.000194660067023
0.000194728016033
0.000194779026605
0.000194795603263
0.000194746237913
0.000194577511617
0.000194201664643
0.000193484247009
0.000192222782515
0.000190130336328
0.000186790665354
0.000181605073435
0.000173616239487
0.000161119226647
0.000140666968027
0.000183911003828
0.000183680205793
0.000140317285445
0.000160397224612
0.00017270286904
0.000180550678392
0.000185648774628
0.000188929993808
0.000191010457651
0.000192290673549
0.00019306077423
0.000193511881999
0.000193774022323
0.000193926764645
0.000194018884879
0.000194077625853
0.000194118197513
0.000194148571705
0.000194191313953
0.000194255310319
0.000194326011383
0.000194401064872
0.000194479072922
0.000194558753167
0.00019463871959
0.000194716537489
0.000194787307393
0.00019484146899
0.000194861341228
0.000194815119963
0.000194649068184
0.000194275142307
0.000193558593355
0.000192296914861
0.000190203268943
0.000186861688373
0.000181673950837
0.000173683755144
0.000161187007396
0.000140748429074
0.000184039440201
0.00018372447072
0.000140372071091
0.000160449127893
0.000172752980747
0.00018059847565
0.00018569443412
0.000188973296884
0.000191051527996
0.000192329279262
0.000193096696058
0.000193544699163
0.000193803283938
0.000193951976998
0.00019403958341
0.000194093393592
0.000194128698447
0.000194156377232
0.000194215606464
0.000194282933801
0.000194355729178
0.000194432391663
0.000194511851172
0.000194593318572
0.000194675667249
0.000194756465291
0.00019483085704
0.000194889124605
0.000194913353866
0.000194871441109
0.000194709347379
0.000194338787205
0.000193624758221
0.000192364719288
0.000190271956715
0.000186930672854
0.000181742896775
0.000173753243365
0.000161258177931
0.000140834135556
0.000184173026251
0.000183767230374
0.00014042224984
0.000160492842156
0.000172790673384
0.000180629439126
0.000185719051158
0.000188991849911
0.000191064779338
0.000192337708808
0.000193100722967
0.000193544432884
0.000193798670064
0.000193942801013
0.000194025569497
0.000194074242768
0.000194104202243
0.000194144959728
0.000194207524271
0.00019427686034
0.00019435103372
0.000194428890519
0.000194509738442
0.000194593191458
0.000194678251339
0.000194762620863
0.000194841305187
0.000194904488019
0.000194934043937
0.000194897625172
0.000194740968251
0.000194375573898
0.000193666487552
0.00019241111772
0.000190322927047
0.000186986124172
0.000181802831468
0.000173817901325
0.000161328021236
0.000140920796649
0.000184309999697
0.000183807535768
0.000140463420882
0.000160520029276
0.00017280351187
0.000180627250055
0.000185702831884
0.000188962925455
0.000191025219763
0.00019228928005
0.000193045001959
0.000193482461862
0.000193731080755
0.000193869847848
0.000193947276265
0.000193990490358
0.000194014965484
0.000194070888279
0.000194135695209
0.000194206169046
0.000194281059206
0.000194359619603
0.000194441695397
0.000194527115568
0.000194615071962
0.000194703226386
0.000194786608004
0.000194855235968
0.000194890837504
0.000194860949292
0.000194711334032
0.00019435357135
0.000193652919521
0.000192407049977
0.000190329682688
0.000187004946566
0.000181834582601
0.000173863099771
0.000161386375605
0.000141002354862
0.000184447614362
0.000183843653724
0.000140487561415
0.00016051487397
0.000172768244508
0.000180561848638
0.00018560995967
0.000188846079928
0.000190888858376
0.000192137460914
0.000192881277011
0.000193309423223
0.000193550488311
0.000193682706768
0.000193754079699
0.000193791421166
0.000193823183559
0.00019388212907
0.000193947849943
0.000194018515426
0.000194093364354
0.000194172120713
0.000194255003441
0.000194342058259
0.000194432605423
0.000194524369789
0.000194612314796
0.000194686407748
0.00019472841459
0.000194706020231
0.00019456531808
0.000194218432247
0.000193531374391
0.000192302496243
0.000190246085003
0.000186946122447
0.000181803685736
0.000173861979711
0.000161414897759
0.000141069112519
0.000184582496432
0.000183871296288
0.00014047619407
0.000160444497046
0.000172639524949
0.000180377265304
0.000185375759441
0.000188569876057
0.000190579255616
0.000191802288518
0.000192527241778
0.000192941524129
0.000193172194534
0.000193296147205
0.000193360430307
0.000193391288553
0.000193432490743
0.000193492134375
0.000193557622232
0.000193627490977
0.000193701435352
0.000193779621732
0.000193862565587
0.000193950501684
0.000194042853875
0.000194137431496
0.000194229192633
0.000194308231186
0.000194356583559
0.00019434246527
0.000194212875371
0.000193881182764
0.000193214967896
0.000192014028102
0.000189993851845
0.000186738527808
0.000181648295999
0.000173764174806
0.000161376750282
0.000141099093131
0.000184706234108
0.000183882410367
0.000140395599575
0.000160250593936
0.0001723392567
0.000179979651214
0.000184894198621
0.000188019207041
0.000189974884723
0.000191157907621
0.000191854291657
0.000192248522129
0.000192465062558
0.000192578578378
0.000192634543815
0.000192658260732
0.000192708571402
0.000192767624143
0.000192831787725
0.000192899861364
0.000192971931965
0.000193048593084
0.000193130558565
0.000193218219859
0.000193311134725
0.000193407177768
0.00019350149051
0.000193584459452
0.000193638733243
0.000193633605095
0.000193517767701
0.000193206845621
0.000192571188844
0.000191413314736
0.000189451113154
0.000186269578638
0.000181268399903
0.000173486157128
0.000161209063585
0.000141054773686
0.000184806424129
0.00018385758161
0.000140176217322
0.00015982361536
0.000171729475571
0.000179210026102
0.000183991076892
0.000187009116109
0.000188883496905
0.000190007372007
0.000190662652784
0.000191029031559
0.000191226827442
0.000191327296796
0.000191373525747
0.000191397392566
0.000191449393956
0.000191506934171
0.000191568776116
0.000191634161311
0.000191703472039
0.000191777568446
0.000191857322027
0.0001919432871
0.000192035135881
0.000192130920912
0.000192226065387
0.000192311529132
0.000192370993359
0.000192375494988
0.000192276408392
0.000191992960328
0.00019139998571
0.000190304619738
0.000188429016833
0.000185360734894
0.000180500552318
0.000172885218387
0.000160797260024
0.000140859904146
0.000184853312322
0.000183760124521
0.000139699601734
0.000158985634986
0.00017059389398
0.000177826083792
0.000182406384682
0.000185267921533
0.000187026153373
0.000188067540532
0.000188666950956
0.00018899665796
0.000189170787095
0.000189255627123
0.000189290903845
0.000189317490498
0.000189367616949
0.000189422742104
0.000189481578028
0.000189543654745
0.000189609519089
0.000189680147449
0.00018975656765
0.000189839443632
0.000189928626611
0.000190022390922
0.000190116607859
0.00019020304739
0.000190266905271
0.000190281713118
0.000190202706043
0.000189954386482
0.000189418302781
0.000188408864336
0.000186655442408
0.000183751137688
0.000179101144734
0.000171743299773
0.000159961113022
0.000140392211177
0.000184799906403
0.000183511853219
0.000138747176406
0.000157431739976
0.000168579090355
0.000175444283986
0.000179737849114
0.000182382237638
0.000183983335492
0.000184915907156
0.000185443573769
0.000185727582685
0.000185873275236
0.000185940150091
0.000185963503212
0.000185995775933
0.000186044055628
0.000186096828564
0.000186152747819
0.000186211469588
0.000186273690629
0.00018634039859
0.000186412700071
0.000186491399585
0.000186576582368
0.000186666789176
0.000186758466967
0.000186844419339
0.000186911805186
0.000186937423628
0.000186881621918
0.000186676199967
0.000186212050296
0.000185314268124
0.000183723935264
0.000181044479421
0.000176690999906
0.000169709045881
0.000158394933482
0.000139425459048
0.000184543714814
0.000182970966463
0.000136968149295
0.000154689868951
0.000165151314893
0.00017149575218
0.00017539679395
0.000177753137117
0.000179151802308
0.000179948244752
0.000180388797505
0.000180619085673
0.000180732532515
0.000180779862494
0.000180790974966
0.000180830550578
0.000180877226591
0.000180928051498
0.000180981563025
0.000181037464739
0.000181096449182
0.000181159441426
0.000181227495463
0.000181301532118
0.000181381973608
0.000181467743846
0.00018155581818
0.000181640176815
0.000181710335609
0.000181747064455
0.000181717203378
0.000181561716998
0.000181184258893
0.000180425122302
0.000179043053402
0.000176659046747
0.000172707519769
0.000166254332334
0.000155631485674
0.000137608687669
0.000183925068953
0.000181866973955
0.000133743036313
0.000149949509166
0.000159409808541
0.000165032336407
0.000168411006146
0.000170398497708
0.000171547278361
0.00017218177679
0.00017252250877
0.000172693505485
0.000172772745285
0.000172800219113
0.000172814183353
0.000172854836216
0.000172901991358
0.000172952938669
0.00017300601087
0.000173060987797
0.000173118482024
0.000173179348134
0.000173244446503
0.000173314637015
0.000173390851799
0.0001734725753
0.000173557172513
0.000173639731833
0.000173712388922
0.000173760518194
0.000173758365904
0.000173658191371
0.000173379890545
0.000172784637833
0.000171657100407
0.00016964670557
0.000166222708495
0.000160493093733
0.000150867435739
0.000134316833215
0.000182644670878
0.000179761966123
0.000128008753864
0.000141788994483
0.000149774272852
0.000154395219312
0.000157085442114
0.000158610121688
0.000159459721532
0.000159908879581
0.000160139746711
0.000160247346778
0.000160290285817
0.000160296291771
0.000160320355065
0.000160362119293
0.000160411327251
0.000160464417517
0.000160519645621
0.000160576446924
0.000160635240269
0.000160696752077
0.000160761560963
0.000160830136474
0.000160903840179
0.00016098312097
0.000161065428188
0.000161146838445
0.000161222214336
0.000161281620567
0.000161307589803
0.000161265251546
0.000161094850253
0.000160685578722
0.000159860197144
0.000158314372307
0.000155579053461
0.000150845500614
0.000142680610606
0.00012847775427
0.000180264694395
0.000176235024875
0.000118157544069
0.000127583058455
0.000133133846943
0.000136235980675
0.000137959510495
0.000138882842699
0.000139370742871
0.000139611099907
0.000139725589788
0.000139769632046
0.000139777856124
0.000139780152069
0.00013981434067
0.000139862327232
0.000139919338022
0.00013998207305
0.000140048529115
0.000140117641585
0.000140189418052
0.000140264259859
0.000140342258287
0.000140423010282
0.000140507445817
0.000140597263558
0.000140689908579
0.000140782101452
0.000140871077926
0.000140951296719
0.000141013476266
0.000141037009187
0.000140986710163
0.000140789577445
0.000140326197644
0.000139372268675
0.00013757660321
0.000134309770494
0.000128489904183
0.000118472566243
0.000176407880494
0.000173180300506
0.000175923722432
0.000179087428128
0.000180961202455
0.000181940031116
0.000182433039211
0.000182671153795
0.000182788648618
0.000182842201342
0.000182867661178
0.00018287665469
0.000182883733955
0.000182910828802
0.000182954403699
0.000183012328596
0.000183082996731
0.000183162353228
0.000183249326742
0.000183344174965
0.000183446749706
0.000183556369235
0.000183672065854
0.000183792816442
0.000183918326195
0.000184048923738
0.000184182768853
0.00018431772171
0.000184452314383
0.000184583706889
0.000184708623569
0.000184819609903
0.00018490549046
0.000184938181797
0.000184872434715
0.000184607198425
0.000183982883619
0.000182696320094
0.000180300741582
0.000176398632027
0.00017344119811
0.000176253248597
0.000192298933837
0.000202815974929
0.00020873251445
0.000211983038688
0.000213737142614
0.000214659998364
0.000215140621044
0.000215392383477
0.000215534056185
0.000215624566484
0.000215694000586
0.000215755795708
0.000215816258901
0.000215877880328
0.00021594156442
0.000216007641311
0.000216075980898
0.000216146231635
0.000216217895778
0.000216290766711
0.000216365183058
0.000216440101889
0.000216514844233
0.000216589068081
0.000216662107856
0.000216733063227