/*--------------------------------*- C++ -*----------------------------------*\
| =========                 |                                                 |
| \\      /  F ield         | foam-extend: Open Source CFD                    |
|  \\    /   O peration     | Version:     4.1                                |
|   \\  /    A nd           | Web:         http://www.foam-extend.org         |
|    \\/     M anipulation  |                                                 |
\*---------------------------------------------------------------------------*/
FoamFile
{
    version     2.0;
    format      ascii;
    class       volScalarField;
    location    "0.8";
    object      p;
}
// * * * * * * * * * * * * * * * * * * * * * * * * * * * * * * * * * * * * * //

dimensions      [1 -1 -2 0 0 0 0];

internalField   nonuniform List<scalar> 
96000
(
5254.62483732
5254.4732788
5254.15051756
5253.65322645
5253.00506829
5252.18587406
5251.22257595
5250.10467884
5248.85200257
5247.46423211
5245.9562012
5244.3340839
5242.61069899
5240.79578412
5238.90178806
5236.94031851
5234.92407021
5232.86561264
5230.77793158
5228.67401552
5226.56697772
5224.4698252
5222.39552249
5220.35682102
5218.36630451
5216.43606218
5214.57816228
5212.80361431
5211.12404687
5209.54861563
5208.08905325
5206.7512408
5205.54831917
5204.48058107
5203.56445066
5202.79231651
5202.18378799
5201.7266326
5201.43013427
5201.30094981
5254.45666134
5254.32742279
5254.01676204
5253.52909119
5252.88926017
5252.07748664
5251.12054796
5250.00832307
5248.76051226
5247.37729343
5245.87347783
5244.25557435
5242.53640811
5240.72588482
5238.83646715
5236.87982991
5234.86866724
5232.81556287
5230.73348839
5228.63542117
5226.53444266
5224.44349248
5222.37548804
5220.34309602
5218.35883177
5216.4347222
5214.58270081
5212.81364504
5211.13893669
5209.56750894
5208.11063601
5206.77381867
5205.56945476
5204.49720429
5203.57274922
5202.78731583
5202.16109502
5201.67768321
5201.35160732
5201.17725845
5254.09164772
5253.97420591
5253.66892297
5253.18298363
5252.54394043
5251.73249099
5250.77515165
5249.66254633
5248.4135804
5247.02912111
5245.52353305
5243.90376634
5242.18250468
5240.36990075
5238.47841216
5236.51984501
5234.50692274
5232.45229613
5230.36895646
5228.26991169
5226.16822691
5224.07687621
5222.0087554
5219.97651001
5217.99258627
5216.06893392
5214.21736746
5212.44869129
5210.77406031
5209.20235242
5207.7444199
5206.40577853
5205.19811461
5204.12113756
5203.18961549
5202.39413698
5201.75485897
5201.2517106
5200.90591115
5200.70860014
5253.53085742
5253.42254115
5253.11865699
5252.63371827
5251.99429043
5251.18233116
5250.22359942
5249.10936122
5247.85784839
5246.47052146
5244.96142713
5243.33794019
5241.6126786
5239.7960633
5237.90059616
5235.93824526
5233.92179998
5231.86400342
5229.77789603
5227.67652638
5225.57297216
5223.48019824
5221.41108163
5219.37821111
5217.3939527
5215.4701691
5213.61852512
5211.84969798
5210.17457669
5208.60189207
5207.14206372
5205.80050813
5204.58833955
5203.50531148
5202.56581142
5201.76050922
5201.11039617
5200.59446637
5200.23854476
5200.03056885
5252.79734067
5252.6969447
5252.39364937
5251.90831447
5251.26597668
5250.45025873
5249.48645529
5248.36658674
5247.10841772
5245.71395692
5244.19702226
5242.56537258
5240.83160868
5239.00641552
5237.10237815
5235.13164669
5233.10711209
5231.04163867
5228.94834596
5226.84035232
5224.73076894
5222.63259476
5220.55869366
5218.52162648
5216.53370912
5214.60673665
5212.75225854
5210.98085845
5209.30322793
5207.72801792
5206.2653413
5204.92062201
5203.70454372
5202.61702562
5201.67195561
5200.86031717
5200.2027823
5199.67928191
5199.31610133
5199.10649356
5251.87079751
5251.7774813
5251.47431479
5250.98843308
5250.34236401
5249.52161325
5248.55101171
5247.42328955
5246.1559781
5244.75156987
5243.22383486
5241.58089762
5239.83544899
5237.99845297
5236.08264232
5234.10037644
5232.06469209
5229.98860162
5227.88533527
5225.76809981
5223.65006694
5221.54426953
5219.46357275
5217.42051489
5215.42735691
5213.49582107
5211.6373404
5209.86239105
5208.18148268
5206.60316375
5205.1373012
5203.78930543
5202.56957199
5201.4782412
5200.52888928
5199.71324971
5199.05140874
5198.52577845
5198.1601007
5197.95564354
5250.78050941
5250.69329107
5250.38968912
5249.90242594
5249.2513764
5248.42388087
5247.44444105
5246.30645506
5245.0274271
5243.61029037
5242.06890813
5240.41175861
5238.65170636
5236.8000058
5234.86958972
5232.87305093
5230.82360815
5228.73444679
5226.61893439
5224.49038701
5222.36205375
5220.24701669
5218.15815143
5216.10798218
5214.10872282
5212.17202864
5210.30923194
5208.5307099
5206.84682716
5205.26604285
5203.79805031
5202.448259
5201.22687014
5200.13424955
5199.18367652
5198.36771351
5197.70551971
5197.18240972
5196.81826322
5196.62276658
5249.51583658
5249.43413148
5249.13028476
5248.6415485
5247.98513152
5247.15001937
5246.16050253
5245.01059864
5243.7179675
5242.28596985
5240.72870639
5239.05502526
5237.27805672
5235.40937622
5233.46217619
5231.44931428
5229.38423155
5227.28031351
5225.15109082
5223.01000731
5220.87040497
5218.74542197
5216.64795016
5214.59049949
5212.58523362
5210.64373296
5208.77722508
5206.99597467
5205.310208
5203.72827636
5202.25972886
5200.90994719
5199.6889913
5198.59743041
5197.64827041
5196.83497016
5196.17550672
5195.65854996
5195.29878994
5195.11572827
5248.09904415
5248.02217556
5247.71741022
5247.22645439
5246.56382493
5245.72002448
5244.71921115
5243.55595634
5242.24820003
5240.79971362
5239.22493851
5237.5331062
5235.73768612
5233.8506021
5231.88535542
5229.85509784
5227.77352609
5225.65424923
5223.51098266
5221.35731209
5219.20668265
5217.07229259
5214.96705022
5212.90344623
5210.89358721
5208.94896763
5207.08070312
5205.29893213
5203.6137448
5202.03337
5200.56723425
5199.22067189
5198.00364249
5196.91688708
5195.97316597
5195.16677998
5194.51446693
5194.00803701
5193.65672269
5193.48875868
5246.53055741
5246.45835404
5246.15278002
5245.65954743
5244.99052148
5244.13756979
5243.12481417
5241.9473441
5240.62350141
5239.1574783
5237.56415674
5235.85318314
5234.03843857
5232.13223205
5230.14842418
5228.10049312
5226.00242465
5223.868075
5221.71136346
5219.54602982
5217.38562767
5215.24341455
5213.13230904
5211.06477019
5209.05283113
5207.1078784
5205.24089399
5203.46186045
5201.78071109
5200.20551457
5198.74556108
5197.40608597
5196.19693825
5195.11895648
5194.1846206
5193.38898444
5192.7474078
5192.25487411
5191.91463915
5191.76427392
5244.82745885
5244.75972149
5244.45296378
5243.95709701
5243.28129201
5242.41873632
5241.39356558
5240.20135469
5238.86092638
5237.37689934
5235.76466964
5234.03432677
5232.20022119
5230.27508103
5228.27316873
5226.20831846
5224.09483361
5221.94683693
5219.77846581
5217.60362103
5215.43596544
5213.28880845
5211.17506654
5209.1071472
5207.09698625
5205.15583196
5203.2945019
5201.52278525
5199.85042691
5198.2852913
5196.83650705
5195.50915739
5194.3129626
5193.24878908
5192.32881395
5191.54873976
5190.92249095
5190.44803369
5190.12243877
5189.99212857
5242.9973809
5242.93426152
5242.62645247
5242.12809787
5241.44561403
5240.57348082
5239.53590478
5238.32894019
5236.97196989
5235.4700624
5233.83919848
5232.08994719
5230.23718469
5228.29409491
5226.27538353
5224.19527023
5222.06840222
5219.90918646
5217.73198899
5215.5508745
5213.37961015
5211.23154483
5209.11957276
5207.05602248
5205.05269879
5203.12067094
5201.27054779
5199.51187274
5197.85415235
5196.30498318
5194.87327957
5193.56389423
5192.38636261
5191.34148045
5190.44105046
5189.68131855
5189.07465179
5188.62200532
5188.31389469
5188.20604061
5241.05530772
5240.99696949
5240.6880954
5240.18736772
5239.49833986
5238.61682266
5237.56712457
5236.34578232
5234.97279702
5233.45370903
5231.80514031
5230.03817359
5228.16825823
5226.20906818
5224.17578789
5222.08304872
5219.94586321
5217.77893584
5215.59686737
5213.41388387
5211.24384637
5209.10012369
5206.99556117
5204.94237239
5202.95218936
5201.03585183
5199.20370576
5197.46498594
5195.82889839
5194.3026989
5192.89502168
5191.61040567
5190.45813471
5189.43884043
5188.56387934
5187.82994786
5187.24774194
5186.82118445
5186.53388661
5186.45097506
5239.01286137
5238.95965117
5238.64998787
5238.14733211
5237.45224312
5236.56191626
5235.50079147
5234.265909
5232.87794425
5231.34294119
5229.67821689
5227.89540499
5226.01057323
5224.03791951
5221.99314035
5219.89130285
5217.74780324
5215.57765322
5213.39568969
5211.21629274
5209.05340095
5206.92037748
5204.82998428
5202.7942773
5200.82466414
5198.93169555
5197.12538845
5195.41459454
5193.8081425
5192.3128584
5190.93701332
5189.6847324
5188.56495858
5187.57805232
5186.73482641
5186.03234098
5185.47947335
5185.08319597
5184.81979176
5184.76427616
5236.8846736
5236.83695703
5236.52678933
5236.02273632
5235.322212
5234.42387919
5233.3523273
5232.10512694
5230.7036752
5229.15455144
5227.4758146
5225.6796852
5223.78288884
5221.80017908
5219.74779239
5217.64125252
5215.49635234
5213.32841648
5211.15251386
5208.98316707
5206.83436915
5204.71944592
5202.65103493
5200.64098302
5198.70041478
5196.83952256
5195.06792
5193.39399179
5191.82610123
5190.37054937
5189.03514907
5187.82350464
5186.74412308
5185.79698555
5184.99225578
5184.32728874
5183.80898083
5183.44745524
5183.21121558
5183.18555946
5234.68443248
5234.64265541
5234.33243073
5233.82772256
5233.12263986
5232.21740292
5231.13676396
5229.87886137
5228.46585733
5226.90490304
5225.21484312
5223.40852092
5221.50335676
5219.51468899
5217.45931962
5215.35324575
5213.21266746
5211.05322287
5208.89020468
5206.73825871
5204.61140457
5202.52289282
5200.48518817
5198.50987148
5196.60771669
5194.78848292
5193.06129719
5191.43398309
5189.91434287
5188.50804715
5187.22234244
5186.06019995
5185.02957827
5184.12997063
5183.37076888
5182.74956288
5182.27108814
5181.94876261
5181.74284506
5181.74941221
5232.42701046
5232.39162572
5232.08184347
5231.57732613
5230.86871889
5229.95789696
5228.86978476
5227.60312711
5226.18089107
5224.61083588
5222.91263121
5221.09977826
5219.19042406
5217.20051873
5215.1474494
5213.0477002
5210.91788215
5208.77394319
5206.63138473
5204.504954
5202.4086632
5200.35564273
5198.35813312
5196.42738292
5194.57374367
5192.8064589
5191.13407753
5189.56376491
5188.10265903
5186.75568628
5185.52941662
5184.42607118
5183.45294144
5182.60892326
5181.90250965
5181.3314748
5180.89820628
5180.61957511
5180.44710784
5180.48812628
5230.12708581
5230.0985697
5229.78981662
5229.28646315
5228.57553668
5227.66066448
5226.56694897
5225.29378521
5223.86498041
5222.28893874
5220.58619107
5218.77092882
5216.86205424
5214.87615188
5212.83121115
5210.74421144
5208.63217518
5206.51135211
5204.39743289
5202.3052377
5200.24873137
5198.24087604
5196.29362681
5194.41783266
5192.62334428
5190.91880022
5189.31207916
5187.80958539
5186.41768335
5185.14043901
5183.98363104
5182.94860985
5182.04187624
5181.26161965
5180.61530373
5180.10083908
5179.71806205
5179.48748107
5179.35139307
5179.42888897
5227.7997443
5227.77855424
5227.47147036
5226.97032168
5226.25840066
5225.34117063
5224.24392067
5222.96673753
5221.53430087
5219.95569595
5218.25234665
5216.43916483
5214.53583271
5212.55958816
5210.52903486
5208.46165145
5206.37486637
5204.28521617
5202.2085571
5200.15974848
5198.15266354
5196.20004193
5194.31348982
5192.50338347
5190.7789909
5189.14825659
5187.61829088
5186.19463124
5184.88275953
5183.68576602
5182.60852139
5181.65138099
5180.81993877
5180.11156969
5179.53257886
5179.0809692
5178.7538219
5178.57547786
5178.47850013
5178.59428687
5225.45997554
5225.44656492
5225.14182034
5224.64397404
5223.9324721
5223.01469898
5221.91613544
5220.6376021
5219.20468103
5217.62717164
5215.92741846
5214.12108043
5212.22863874
5210.26800002
5208.25838774
5206.21777869
5204.16399829
5202.11384919
5200.08332553
5198.08728546
5196.13946335
5194.25231758
5192.43703925
5190.70345596
5189.06017076
5187.51434255
5186.07221255
5184.73834671
5183.5172349
5182.41088034
5181.42312395
5180.55320936
5179.80570408
5179.17706323
5178.67230203
5178.28948075
5178.02273188
5177.90045814
5177.84502084
5178.00082127
5223.12279862
5223.11757562
5222.81585246
5222.32240784
5221.61278869
5220.69635795
5219.5987984
5218.32170256
5216.89157875
5215.31897189
5213.62717005
5211.83260234
5209.95656251
5208.01763592
5206.03566654
5204.02912344
5202.01621238
5200.01397907
5198.03852028
5196.1046519
5194.22591583
5192.41442904
5190.68089929
5189.03452853
5187.48316947
5186.03310485
5184.68961151
5183.45617995
5182.33620043
5181.33047695
5180.44170399
5179.66790025
5179.0124876
5178.47089557
5178.04671588
5177.7380275
5177.53580075
5177.47267836
5177.4603307
5177.656829
5220.80300233
5220.80630718
5220.50831039
5220.02034458
5219.31408834
5218.40091099
5217.30670981
5216.03388549
5214.6098939
5213.04605265
5211.36661155
5209.58878751
5207.73469547
5205.82360358
5203.87597213
5201.9107498
5199.94650224
5198.00048839
5196.08887042
5194.22637371
5192.42629402
5190.70034521
5189.05868149
5187.50980275
5186.06072986
5184.71677976
5183.48217385
5182.35923075
5181.35013722
5180.45439251
5179.67344569
5179.00398258
5178.44817327
5178.00033603
5177.66253018
5177.4328288
5177.29887592
5177.29770052
5177.33012688
5177.56755815
5218.5151478
5218.5272054
5218.23371288
5217.75221758
5217.05076431
5216.14271056
5215.05419219
5213.78844346
5212.37388851
5210.82263836
5209.1599171
5207.40374114
5205.57704849
5203.69978842
5201.79302581
5199.87617147
5197.96812498
5196.08632408
5194.24695474
5192.46460207
5190.75226075
5189.12117808
5187.58088741
5186.13911327
5184.80196415
5183.57371116
5182.45743504
5181.4541956
5180.56488452
5179.78760552
5179.12247544
5178.56475644
5178.11527709
5177.76716909
5177.52086687
5177.37440378
5177.31199619
5177.37510217
5177.45380804
5177.73304221
5216.27337739
5216.2943281
5216.00606201
5215.53197045
5214.83667265
5213.93553074
5212.85493089
5211.59896421
5210.1970382
5208.6620725
5207.02027237
5205.29045828
5203.496387
5201.65868032
5199.7989902
5197.93716634
5196.09241101
5194.28230261
5192.52300471
5190.82891443
5189.2126666
5187.68498228
5186.25470852
5184.92872433
5183.71215604
5182.60815821
5181.61859441
5180.74318822
5179.98146535
5179.3300552
5178.7876557
5178.34803403
5178.01060287
5177.76721656
5177.61660021
5177.5566927
5177.5681915
5177.69700911
5177.82234079
5178.14306843
5214.09158208
5214.1214725
5213.838977
5213.37310385
5212.68518912
5211.79259487
5210.72199139
5209.47833644
5208.09203536
5206.57682248
5204.95988463
5203.26084282
5201.50426064
5199.71141626
5197.9045248
5196.10384543
5194.32884698
5192.59720578
5190.92501998
5189.32644366
5187.8136992
5186.39692258
5185.08421252
5183.88154137
5182.79299794
5181.82055398
5180.96479047
5180.2240288
5179.59637115
5179.07691349
5178.66285865
5178.34640986
5178.12549718
5177.99062934
5177.93875892
5177.96766167
5178.05449326
5178.24964566
5178.42148562
5178.78292888
5211.98286871
5212.02169441
5211.74534283
5211.28834217
5210.60887969
5209.72627726
5208.6675387
5207.43848588
5206.07053426
5204.57822954
5202.98973405
5201.32545703
5199.61074953
5197.86752196
5196.11852243
5194.38438487
5192.68480376
5191.03751071
5189.45848991
5187.96160297
5186.55860731
5185.25899939
5184.07007538
5182.99685509
5182.04233428
5181.20725195
5180.49084872
5179.89000584
5179.40134653
5179.01837447
5178.73675998
5178.54708307
5178.44573926
5178.42184627
5178.47055469
5178.58940488
5178.75203134
5179.01323307
5179.23089658
5179.63193685
5209.96014589
5210.00778118
5209.73775917
5209.29003759
5208.619855
5207.74841592
5206.70312922
5205.49065681
5204.14343559
5202.67680506
5201.11988965
5199.49386274
5197.82483503
5196.1353164
5194.4485508
5192.78550593
5191.16605883
5189.60795142
5188.12700494
5186.73674168
5185.44840451
5184.27080091
5183.21038721
5182.27118709
5181.45506039
5180.7614678
5180.18829699
5179.73094183
5179.38451257
5179.14087495
5178.9941681
5178.93330261
5178.9531233
5179.04131205
5179.19122521
5179.40011599
5179.63814415
5179.96437584
5180.22660538
5180.66568795
5208.03493505
5208.09109096
5207.82746249
5207.3892061
5206.72890851
5205.8695288
5204.83897895
5203.64471487
5202.32020816
5200.88156001
5199.3588378
5197.77394247
5196.15370925
5194.52120596
5192.90012938
5191.31173528
5189.77603835
5188.31074369
5186.93146493
5185.65133905
5184.48105141
5183.42868382
5182.49982034
5181.69745727
5181.02228386
5180.47247851
5180.04454871
5179.73238622
5179.52955119
5179.42629101
5179.41517151
5179.48342862
5179.62437078
5179.8241863
5180.07447559
5180.37212626
5180.6839599
5181.07309822
5181.377851
5181.85280519
5206.21939507
5206.28349817
5206.02602039
5205.59701897
5204.9468465
5204.10003406
5203.08512021
5201.91027669
5200.61002061
5199.20116077
5197.71467884
5196.17315003
5194.60409
5193.0310716
5191.47819494
5189.96695388
5188.51745285
5187.14731425
5185.87190074
5184.70392173
5183.65347074
5182.72788212
5181.93183568
5181.26727895
5180.73374833
5180.32811997
5180.04551001
5179.87829258
5179.81853775
5179.85484869
5179.97823795
5180.17425174
5180.43471448
5180.74428716
5181.09290071
5181.47696501
5181.86019071
5182.30941202
5182.65431952
5183.16254768
5204.52267292
5204.59389654
5204.34222557
5203.92201718
5203.28198492
5202.44794984
5201.44924098
5200.2946355
5199.01971297
5197.64191467
5196.19310421
5194.69646191
5193.180134
5191.66813523
5190.18491622
5188.75215545
5187.38999999
5186.11594433
5184.9450622
5183.88960194
5182.95903796
5182.15993495
5181.49606374
5180.96834055
5180.57514309
5180.31204499
5180.17278152
5180.14825737
5180.22905741
5180.40214948
5180.65704364
5180.97758864
5181.3541702
5181.76988535
5182.21311185
5182.67964133
5183.13037436
5183.63546344
5184.01704797
5184.55542108
5202.95679866
5203.03382432
5202.78709159
5202.37462699
5201.7442463
5200.92271011
5199.94031797
5198.80629695
5197.55729904
5196.21128773
5194.80096626
5193.35002642
5191.88718652
5190.43682635
5189.02369029
5187.66958213
5186.39464368
5185.21620016
5184.14900455
5183.20481465
5182.39246502
5181.71774334
5181.1835395
5180.78975456
5180.53360925
5180.40940266
5180.40955164
5180.52351153
5180.74042663
5181.04566245
5181.4273136
5181.86753503
5182.3553659
5182.87230689
5183.40537153
5183.94953223
5184.4633501
5185.01943942
5185.43407391
5185.9985815
5201.52713307
5201.60822895
5201.36556373
5200.9596028
5200.33826205
5199.52874638
5198.56254186
5197.44913178
5196.22625783
5194.91226682
5193.54066066
5192.13552858
5190.72610216
5189.33704
5187.99332391
5186.7168215
5185.52762682
5184.44286063
5183.4769275
5182.6410707
5181.94347817
5181.38918344
5180.98022056
5180.7154954
5180.59111435
5180.60014872
5180.73374808
5180.97995584
5181.32655076
5181.75733559
5182.2590601
5182.81217578
5183.40450835
5184.01589914
5184.63219341
5185.24735353
5185.81805159
5186.41872762
5186.86117018
5187.44760684
5200.24695078
5200.32964782
5200.08935059
5199.68792067
5199.07435941
5198.27583188
5197.3251753
5196.23189775
5195.03483145
5193.75252064
5192.41921867
5191.05926424
5189.70233926
5188.37327771
5187.09724046
5185.89609413
5184.78984571
5183.7953774
5182.92672504
5182.19460186
5181.60655772
5181.16690647
5180.87686973
5180.73439679
5180.73453938
5180.86920119
5181.12834033
5181.49865711
5181.96667978
5182.51468873
5183.1282154
5183.78601298
5184.47490051
5185.17296107
5185.86521873
5186.54425079
5187.16550351
5187.80379724
5188.26887954
5188.87119665
5199.11568874
5199.19685056
5198.95729999
5198.55842564
5197.95147807
5197.16300416
5196.22730984
5195.15366764
5193.98198906
5192.73079022
5191.43503607
5190.11914549
5188.81319712
5187.54209132
5186.3311189
5185.2020843
5184.17487579
5183.26610972
5182.48944535
5181.85505984
5181.36988168
5181.0375481
5180.85854058
5180.82989651
5180.94566155
5181.19665553
5181.5717508
5182.05636424
5182.63588065
5183.29108743
5184.00643807
5184.75897076
5185.53467473
5186.30980832
5187.06891229
5187.80281232
5188.46649813
5189.13423035
5189.61525913
5190.22679803
5198.14940682
5198.22524294
5197.9838102
5197.58498829
5196.9827404
5196.20277008
5195.28077094
5194.22555243
5193.07809413
5191.85660551
5190.59673871
5189.32278167
5188.06516098
5186.84871525
5185.69881889
5184.63714681
5183.68344025
5182.85402811
5182.16219236
5181.61756431
5181.22650209
5180.99203056
5180.91396103
5180.98847468
5181.20873069
5181.5645431
5182.04383753
5182.6308404
5183.30995827
5184.06053998
5184.86619525
5185.70223749
5186.55412163
5187.39612962
5188.21257411
5188.99214695
5189.69033031
5190.37857209
5190.86918414
5191.47845597
5197.34026
5197.40577098
5197.15924861
5196.75808885
5196.15900758
5195.38679796
5194.47808608
5193.44097611
5192.31736487
5191.12485608
5189.89974383
5188.66598184
5187.45431545
5186.28940928
5185.19669506
5184.19766555
5183.31190067
5182.55543085
5181.94117464
5181.47820166
5181.17235481
5181.02613975
5181.03873663
5181.20551714
5181.51887425
5181.96772975
5182.53916691
5183.21630746
5183.98271698
5184.81632081
5185.70001649
5186.60737765
5187.52346816
5188.42050065
5189.2829483
5190.0973411
5190.81981473
5191.5186855
5192.01181745
5192.60860233
5196.705075
5196.75602702
5196.50121118
5196.09600131
5195.49787469
5194.73159243
5193.83420489
5192.81299356
5191.7108384
5190.5443681
5189.350567
5188.15279326
5186.98209952
5185.86283616
5184.82046897
5183.87624127
5183.04955923
5182.3561431
5181.80858393
5181.41537645
5181.18193173
5181.11035539
5181.19932632
5181.44345493
5181.83452041
5182.36068133
5183.00838802
5183.75976724
5184.59778878
5185.49905333
5186.44606354
5187.41062799
5188.37786386
5189.31774739
5190.21508342
5191.05387208
5191.79162237
5192.49079793
5192.9781316
5193.54710726
5196.23517651
5196.26354071
5195.99378863
5195.58222193
5194.98423311
5194.22507146
5193.34047602
5192.33684351
5191.25738154
5190.11766024
5188.95516551
5187.79261981
5186.66133831
5185.58532915
5184.59008407
5183.69657728
5182.92403807
5182.28788122
5181.8004273
5181.46953596
5181.30028658
5181.29437017
5181.45004739
5181.76125427
5182.21920544
5182.81147856
5183.52397509
5184.33793303
5185.23577691
5186.19282008
5187.19106224
5188.20062857
5189.20628344
5190.17610601
5191.09463339
5191.94419053
5192.68264996
5193.3676356
5193.83651627
5194.35711158
5195.92874084
5195.93137813
5195.64662728
5195.2302639
5194.6309565
5193.87616099
5193.00046467
5192.00929521
5190.94671212
5189.82685622
5188.68788604
5187.55166675
5186.44978846
5185.40582831
5184.44527735
5183.58881016
5182.85548749
5182.260424
5181.81579808
5181.52881506
5181.40431976
5181.44406463
5181.64582493
5182.00300875
5182.50648589
5183.14335828
5183.89932445
5184.75495146
5185.6924184
5186.68596811
5187.71753821
5188.75538908
5189.78456693
5190.77158805
5191.7011956
5192.55403086
5193.28756794
5193.95395759
5194.39399267
5194.85130309
5195.80681264
5195.7708001
5195.46900617
5195.04728353
5194.45167533
5193.70754193
5192.846215
5191.87308799
5190.83109448
5189.73432568
5188.62067919
5187.51193442
5186.43960299
5185.42712499
5184.49986868
5183.67830849
5182.98132089
5182.42379341
5182.01779579
5181.7702392
5181.68496776
5181.76417192
5182.00548115
5182.40162359
5182.94347088
5183.61770606
5184.40971321
5185.29977416
5186.2696514
5187.29301484
5188.35095756
5189.41140774
5190.45734607
5191.4540857
5192.38231918
5193.22316262
5193.92940395
5194.54798551
5194.92443732
5195.27222204
5091.54475599
5091.38518575
5091.05608999
5090.55061726
5089.89498539
5089.068395
5088.09819935
5086.97358232
5085.71426451
5084.31977884
5082.80483927
5081.1755706
5079.44472533
5077.6220428
5075.71997076
5073.75014374
5071.72528033
5069.65799081
5067.56130073
5065.44825934
5063.33202355
5061.22559912
5059.1420571
5057.09419931
5055.09467013
5053.1556424
5051.28925492
5049.50661677
5047.8194543
5046.23708217
5044.77140101
5043.42857825
5042.22210083
5041.15274533
5040.23764286
5039.46994805
5038.87053035
5038.42864669
5038.15494959
5038.0595176
5091.36991056
5091.23810177
5090.92799498
5090.43221585
5089.78409398
5088.96334534
5087.99784497
5086.87749153
5085.62178374
5084.23086853
5082.71927524
5081.09350017
5079.36621534
5077.54734168
5075.64929761
5073.68379096
5071.66352551
5069.60112817
5067.50960149
5065.40198995
5063.29140813
5061.19081009
5059.11319995
5057.07130866
5055.07769099
5053.14446071
5051.2836212
5049.50617297
5047.82359295
5046.24503666
5044.7819408
5043.44023036
5042.23264561
5041.15953995
5040.23729502
5039.45777572
5038.8423891
5038.37443641
5038.07395398
5037.93961064
5090.9992509
5090.88611125
5090.5938144
5090.10527652
5089.46059114
5088.64060895
5087.67415278
5086.55249565
5085.29458581
5083.90146009
5082.3871873
5080.75873117
5079.02857765
5077.20688423
5075.30603857
5073.33787194
5071.31510946
5069.25044403
5067.15689859
5065.0475521
5062.93549316
5060.83373534
5058.75526573
5056.71281055
5054.71885912
5052.78544164
5050.92444272
5049.14680307
5047.46377668
5045.88449237
5044.41997259
5043.07619968
5041.86518893
5040.78732336
5039.85793391
5039.06790879
5038.43848331
5037.94821166
5037.62605136
5037.46866265
5090.43050332
5090.32590273
5090.04029395
5089.55522912
5088.91164211
5088.09126321
5087.1228777
5085.99864726
5084.73712071
5083.34003789
5081.82120801
5080.18803093
5078.45291969
5076.62628843
5074.72055791
5072.74771459
5070.72054581
5068.65183511
5066.55465649
5064.44212828
5062.32734871
5060.22333513
5058.14304787
5056.09914153
5054.10404387
5052.1697047
5050.30786414
5048.52933649
5046.84511276
5045.26417473
5043.79710915
5042.44978798
5041.23363491
5040.14902674
5039.21093346
5038.41031549
5037.76977831
5037.26775796
5036.93989209
5036.78426757
5089.68946807
5089.59158037
5089.30906814
5088.82497235
5088.17942523
5087.35541669
5086.38164802
5085.25116426
5083.98225477
5082.57728447
5081.04990091
5079.40789429
5077.66366411
5075.82787477
5073.91302394
5071.93127096
5069.89550161
5067.81861689
5065.71377165
5063.59414852
5061.47287933
5059.36302314
5057.27752335
5055.22900132
5053.22983824
5051.29191215
5049.42684558
5047.64535249
5045.95822369
5044.37435095
5042.90401556
5041.55308218
5040.33256551
5039.24299844
5038.29898374
5037.4918743
5036.84447854
5036.33644088
5036.00497456
5035.85272322
5088.75524645
5088.6624606
5088.3804148
5087.89571552
5087.24651477
5086.41717643
5085.43613515
5084.29715311
5083.01841958
5081.60281863
5080.06399984
5078.41011897
5076.653669
5074.80558122
5072.87849514
5070.88477106
5068.83743816
5066.74954174
5064.63434806
5062.50512281
5060.37506135
5058.2572587
5056.16465574
5054.10984853
5052.10516139
5050.16239481
5048.29305149
5046.50773147
5044.81704226
5043.22976725
5041.75595266
5040.4014521
5039.1770449
5038.08352161
5037.13535369
5036.32475559
5035.67443198
5035.16653989
5034.83647763
5034.69318344
5087.65758759
5087.56901636
5087.28582799
5086.79906141
5086.14449868
5085.30791279
5084.31751854
5083.16769972
5081.87670309
5080.44786083
5078.89494695
5077.22646521
5075.4550829
5073.59201024
5071.65008141
5069.64188209
5067.58062063
5065.47951165
5063.3519581
5061.21132871
5059.07089908
5056.94381335
5054.84301681
5052.78108755
5050.77029833
5048.82237587
5046.94871635
5045.15981217
5043.46612434
5041.87634314
5040.40035668
5039.04402785
5037.81800649
5036.72333976
5035.77438067
5034.96419654
5034.31489934
5033.81118004
5033.48528238
5033.35202682
5086.38555156
5086.30094658
5086.01643944
5085.52713245
5084.86650606
5084.02161904
5083.02056022
5081.85825892
5080.55317142
5079.10904389
5077.53990419
5075.85461398
5074.06610422
5072.18589524
5070.22707492
5068.202487
5066.1255587
5064.00970136
5061.86848033
5059.71538718
5057.56379129
5055.42689119
5053.31764173
5051.24860272
5049.23199066
5047.27945077
5045.40226805
5043.61081505
5041.9154113
5040.32463625
5038.84824877
5037.49209237
5036.26673838
5035.17345445
5034.22646776
5033.41968182
5032.77428853
5032.27775826
5031.95784576
5031.83665009
5084.96136428
5084.88023723
5084.59363419
5084.10093582
5083.43330909
5082.57901793
5081.56610305
5080.38996244
5079.06937169
5077.60846162
5076.02160865
5074.31804279
5072.51102876
5070.61242531
5068.63562382
5066.59375699
5064.50050458
5062.36949831
5060.21448664
5058.04909789
5055.88680459
5053.74086185
5051.62423339
5049.54945453
5047.52867709
5045.57345207
5043.69494408
5041.90339068
5040.2089691
5038.62012955
5037.14651679
5035.79392533
5034.57287113
5033.48478054
5032.54374646
5031.74438218
5031.10682909
5030.62101441
5030.31007477
5030.2021513
5083.38530581
5083.30779845
5083.01929953
5082.5231595
5081.84833776
5080.98418985
5079.95881597
5078.76804138
5077.43107732
5075.95244206
5074.34695402
5072.62424231
5070.79797607
5068.88039017
5066.88523045
5064.82595202
5062.7165215
5060.57081529
5058.40278255
5056.22620089
5054.05465089
5051.90144239
5049.77954127
5047.70144506
5045.67922338
5043.72430969
5041.84772427
5040.05953773
5038.36976056
5036.78667052
5035.31977487
5033.97475285
5032.76203505
5031.68310051
5030.75184364
5029.96344866
5029.33685051
5028.86439524
5028.56416455
5028.47090718
5081.6743577
5081.60040175
5081.30971678
5080.80983662
5080.12749794
5079.25310645
5078.21488272
5077.00904388
5075.65531419
5074.15860092
5072.53423625
5070.79227573
5068.94685178
5067.0106102
5064.99769497
5062.9219142
5060.79754985
5058.63874266
5056.45965804
5054.2742284
5052.09614212
5049.93875562
5047.81502394
5045.73738544
5043.71780235
5041.76755877
5039.89749734
5038.1174798
5036.43731367
5034.86505283
5033.41002985
5032.07774006
5030.87849162
5029.81371764
5028.8970682
5028.12416204
5027.51265938
5027.0571183
5026.77044891
5026.69335811
5079.83611032
5079.76603316
5079.47340612
5078.97000119
5078.28031368
5077.39577283
5076.34478896
5075.12396097
5073.75360611
5072.2390415
5070.59618329
5068.83554924
5066.9717917
5065.01800606
5062.98877641
5060.89829419
5058.76118319
5056.59186632
5054.40473541
5052.21388117
5050.03309354
5047.87576209
5045.75481018
5043.68258855
5041.67091673
5039.73088709
5037.87311801
5036.10720685
5034.44270208
5032.88736195
5031.45028149
5030.13667857
5028.95666572
5027.91150875
5027.01452997
5026.26164494
5025.66912867
5025.2337274
5024.96284443
5024.90346531
5077.8854984
5077.81953811
5077.52502651
5077.01827104
5076.32144224
5075.4270202
5074.36364392
5073.12829258
5071.74193688
5070.21032361
5068.55000984
5066.77201009
5064.89154505
5062.92219493
5060.87902028
5058.77662289
5056.62999021
5054.4538408
5052.26279831