/*--------------------------------*- C++ -*----------------------------------*\
| =========                 |                                                 |
| \\      /  F ield         | foam-extend: Open Source CFD                    |
|  \\    /   O peration     | Version:     4.1                                |
|   \\  /    A nd           | Web:         http://www.foam-extend.org         |
|    \\/     M anipulation  |                                                 |
\*---------------------------------------------------------------------------*/
FoamFile
{
    version     2.0;
    format      ascii;
    class       volScalarField;
    location    "0.8";
    object      pd;
}
// * * * * * * * * * * * * * * * * * * * * * * * * * * * * * * * * * * * * * //

dimensions      [1 -1 -2 0 0 0 0];

internalField   nonuniform List<scalar> 
96000
(
5336.22764822
5336.07609272
5335.75333846
5335.2560523
5334.60788738
5333.78867422
5332.82535773
5331.70744552
5330.45475792
5329.06697953
5327.55894124
5325.93681467
5324.21342599
5322.39851185
5320.504516
5318.54304572
5316.52679657
5314.46833816
5312.3806551
5310.27673564
5308.16969609
5306.0725429
5303.99823853
5301.95953591
5299.96901891
5298.0387761
5296.18087571
5294.40632668
5292.72675742
5291.15132422
5289.6917606
5288.35394725
5287.15102314
5286.08328489
5285.16716224
5284.39503126
5283.78650264
5283.32934469
5283.03285009
5282.90369594
5336.05947655
5335.93024388
5335.61959454
5335.13192711
5334.49208571
5333.68029305
5332.72333507
5331.61109515
5330.36327383
5328.98004713
5327.47622487
5325.85831626
5324.13914674
5322.32862182
5320.4392036
5318.482566
5316.47140253
5314.41829673
5312.33622052
5310.23815152
5308.13717128
5306.04621968
5303.97821433
5301.94582175
5299.96155718
5298.03744724
5296.18542511
5294.41636829
5292.74165832
5291.17022842
5289.71335343
5288.37653531
5287.17217287
5286.09992554
5285.17547371
5284.39004182
5283.76381942
5283.28040246
5282.95432724
5282.78001029
5335.69447321
5335.57704269
5335.27177441
5334.78583955
5334.14678721
5333.33532039
5332.37796338
5331.26534446
5330.01636926
5328.63190322
5327.12630979
5325.50653917
5323.78527526
5321.97267051
5320.08118182
5318.1226145
5316.10969158
5314.05506386
5311.97172286
5309.8726768
5307.77099089
5305.67963941
5303.61151823
5301.57927274
5299.595349
5297.67169659
5295.82012979
5294.05145269
5292.37682012
5290.80511013
5289.34717559
5288.0085331
5286.80087007
5285.72389554
5284.79237562
5283.99689699
5283.35761507
5282.85445766
5282.50864914
5282.31136583
5335.133693
5335.02538814
5334.72151997
5334.23658795
5333.59715301
5332.78517821
5331.82643002
5330.71217913
5329.46065798
5328.07332545
5326.56422691
5324.94073705
5323.21547407
5321.39885869
5319.50339198
5317.54104132
5315.52459573
5313.46679837
5311.38068997
5309.27931938
5307.17576447
5305.08299022
5303.01387359
5300.98100329
5298.99674515
5297.07296167
5295.22131741
5293.45248934
5291.77736633
5290.20467932
5288.74484853
5287.40329143
5286.19112341
5285.10809757
5284.16859918
5283.36329589
5282.71317697
5282.19723511
5281.84130158
5281.63334566
5334.40017892
5334.29979102
5333.99651264
5333.51118641
5332.86884352
5332.05311052
5331.08929142
5329.9694109
5328.71123429
5327.31676883
5325.79983082
5324.16817886
5322.4344141
5320.6092214
5318.70518502
5316.73445421
5314.70991959
5312.64444561
5310.55115211
5308.44315775
5306.33357395
5304.23539973
5302.16149891
5300.12443224
5298.13651544
5296.20954338
5294.35506524
5292.58366434
5290.90603214
5289.33081966
5287.86814037
5286.52341949
5285.30734179
5284.21982611
5283.27475821
5282.46311618
5281.80557045
5281.28205465
5280.91886444
5280.70926953
5333.47362601
5333.38031959
5333.07717161
5332.59129971
5331.94522616
5331.12446049
5330.15384298
5329.02610873
5327.75878978
5326.35437722
5324.82663924
5323.18369985
5321.43825034
5319.60125496
5317.68544569
5315.70318064
5313.6674963
5311.59140518
5309.4881378
5307.37090117
5305.25286732
5303.14706958
5301.06637291
5299.0233154
5297.03015794
5295.09862252
5293.24014195
5291.46519162
5289.78428068
5288.20595784
5286.74009088
5285.39209188
5284.17235824
5283.08103032
5282.13168104
5281.31603868
5280.65418694
5280.12853963
5279.7628471
5279.55840945
5332.38332716
5332.29612123
5331.99253925
5331.50528635
5330.85423241
5330.02672186
5329.0472657
5327.90926735
5326.63023185
5325.21309085
5323.6717056
5322.01455364
5320.254501
5318.40280112
5316.4723859
5314.47584794
5312.42640502
5310.33724248
5308.22172878
5306.09318072
5303.96484733
5301.84981007
5299.76094453
5297.71077497
5295.71151502
5293.77481998
5291.91202197
5290.13349856
5288.44961302
5286.8688241
5285.40082608
5284.05102986
5282.82963954
5281.73702283
5280.78645408
5279.97048904
5279.30828533
5278.78515806
5278.42099215
5278.22552336
5331.11865078
5331.03695644
5330.73313043
5330.24440481
5329.58798352
5328.75285637
5327.7633231
5326.61340676
5325.32076862
5323.88876682
5322.33150041
5320.65781867
5318.88085061
5317.01217066
5315.06497098
5313.05210919
5310.98702629
5308.88310782
5306.75388432
5304.61280036
5302.47319791
5300.34821467
5298.25074248
5296.19329138
5294.18802478
5292.24652275
5290.38001257
5288.59875924
5286.91298856
5285.33105166
5283.86249883
5282.51271369
5281.29175624
5280.20019613
5279.25103842
5278.43773674
5277.77826444
5277.26129081
5276.90151348
5276.71848035
5329.70185464
5329.62499685
5329.32025254
5328.82930785
5328.16667439
5327.32285896
5326.32202943
5325.15876246
5323.85099948
5322.40250937
5320.82773162
5319.13589894
5317.34047979
5315.45339675
5313.48815067
5311.45789329
5309.37632146
5307.25704443
5305.11377744
5302.96010617
5300.80947632
5298.67508577
5296.56984307
5294.50623879
5292.49637941
5290.55175901
5288.68349251
5286.90171811
5285.21652631
5283.63614606
5282.17000472
5280.82343896
5279.60640858
5278.5196533
5277.57593209
5276.76954487
5276.11722316
5275.61077669
5275.25945065
5275.09151052
5328.1333629
5328.06117069
5327.75561793
5327.26239721
5326.59336771
5325.74040119
5324.72762973
5323.55014787
5322.22629868
5320.76027245
5319.16694897
5317.45597444
5315.64123065
5313.73502561
5311.75121921
5309.70328912
5307.60522067
5305.47087008
5303.31415826
5301.14882442
5298.98842174
5296.84620813
5294.73510236
5292.66756326
5290.65562374
5288.71067035
5286.84368473
5285.06464809
5283.38349446
5281.8082924
5280.34833239
5279.00885272
5277.79970385
5276.72172297
5275.78738862
5274.99175089
5274.35016485
5273.857615
5273.51737045
5273.36702729
5326.43025982
5326.36253142
5326.05579543
5325.55994134
5324.88413341
5324.02156315
5322.99637682
5321.80415443
5320.46371991
5318.97969025
5317.36745938
5315.637116
5313.80301102
5311.87787272
5309.87596259
5307.81111379
5305.69762928
5303.54963187
5301.3812599
5299.20641466
5297.03875862
5294.89160131
5292.77785922
5290.70993975
5288.69977833
5286.75862313
5284.89729171
5283.12557282
5281.45321066
5279.8880692
5278.43927808
5277.11192301
5275.91572637
5274.85155457
5273.93158301
5273.15150617
5272.52524746
5272.05077424
5271.72516331
5271.59488224
5324.60017449
5324.53706304
5324.22927665
5323.73093565
5323.04844958
5322.17630214
5321.13871071
5319.93173474
5318.57475858
5317.07284905
5315.44198422
5313.69273289
5311.8399716
5309.89688412
5307.87817509
5305.79806335
5303.67119585
5301.5119798
5299.33478143
5297.15366606
5294.98240122
5292.83433577
5290.72236372
5288.65881335
5286.65548921
5284.7234603
5282.87333529
5281.11465804
5279.45693374
5277.9077588
5276.47604839
5275.16665718
5273.98912423
5272.94424487
5272.04381673
5271.28408195
5270.67740567
5270.22474311
5269.91661426
5269.80879254
5322.65809189
5322.5997623
5322.29091196
5321.79019886
5321.10116954
5320.21963852
5319.16992525
5317.9485718
5316.57558096
5315.05649129
5313.40792212
5311.64095584
5309.77104214
5307.81185462
5305.77857682
5303.68583918
5301.54865412
5299.3817266
5297.19965758
5295.0166733
5292.84663524
5290.70291257
5288.59835017
5286.54516106
5284.55497744
5282.63863873
5280.80649055
5279.06776787
5277.4316759
5275.90547005
5274.49778608
5273.2131654
5272.06089207
5271.04160076
5270.16664064
5269.43270681
5268.850492
5268.42391829
5268.13660668
5268.05372443
5320.61563692
5320.56243584
5320.25279729
5319.75015708
5319.05506749
5318.1647272
5317.1035875
5315.86869404
5314.48072407
5312.94571981
5311.28099559
5309.49818456
5307.61335471
5305.64070365
5303.59592704
5301.49409128
5299.35059233
5297.18044217
5294.99847805
5292.81908044
5290.65618833
5288.52316476
5286.43277127
5284.39706387
5282.42745006
5280.53447996
5278.7281708
5277.01737394
5275.41091673
5273.91562541
5272.53977419
5271.28748901
5270.16770975
5269.18080549
5268.33758388
5267.63509673
5267.08222017
5266.68592644
5266.42251283
5266.36702322
5318.48744178
5318.43973417
5318.12959205
5317.62555553
5316.92503155
5316.02668564
5314.95511912
5313.70790799
5312.30645141
5310.75732699
5309.07859064
5307.28246238
5305.38566818
5303.40296115
5301.35057712
5299.24403942
5297.09914017
5294.93120392
5292.75530043
5290.58595301
5288.43715511
5286.32223172
5284.25382016
5282.24376807
5280.30319927
5278.44230543
5276.67070088
5274.99676928
5273.42887315
5271.97331498
5270.63790836
5269.42625553
5268.34687246
5267.39973586
5266.59501153
5265.93004286
5265.4117257
5265.05018361
5264.81393604
5264.78830538
5316.28719386
5316.24542529
5315.9352269
5315.43053614
5314.72545474
5313.82020492
5312.73955159
5311.48163842
5310.0686299
5308.50767537
5306.81761627
5305.01129543
5303.10613357
5301.11746882
5299.06210231
5296.95603056
5294.81545315
5292.65600817
5290.49298932
5288.34104287
5286.21418855
5284.12567683
5282.0879722
5280.11265508
5278.21049934
5276.39126492
5274.6640773
5273.03675879
5271.5171132
5270.11081226
5268.8250993
5267.66294782
5266.63232726
5265.73272154
5264.9735244
5264.35231596
5263.87383215
5263.55149019
5263.34556311
5263.35215851
5314.02976489
5313.99438833
5313.68463303
5313.18013396
5312.47152896
5311.56069435
5310.47256798
5309.20589991
5307.78365963
5306.21360452
5304.51540096
5302.70254957
5300.79319782
5298.80329579
5296.75022946
5294.65048201
5292.52066482
5290.37672584
5288.23416702
5286.10773594
5284.01144469
5281.95842448
5279.96091544
5278.03016418
5276.17652349
5274.40923842
5272.73685511
5271.16653857
5269.70542763
5268.35844921
5267.13216917
5266.02881835
5265.05568986
5264.21167455
5263.50526394
5262.93422681
5262.50095021
5262.22230287
5262.04982314
5262.09087357
5311.72983314
5311.701325
5311.39259951
5310.88926511
5310.17834183
5309.26345712
5308.1697276
5306.89655349
5305.46774463
5303.89170342
5302.18895709
5300.37369663
5298.46482464
5296.4789255
5294.433988
5292.34699033
5290.23495473
5288.1141317
5286.00021232
5283.90801694
5281.85151035
5279.84365511
5277.89640599
5276.02061133
5274.22612201
5272.52157513
5270.91485077
5269.41235514
5268.0204509
5266.74319797
5265.58637716
5264.55135671
5263.64462458
5262.86436996
5262.21805495
5261.70359073
5261.32080612
5261.09020933
5260.95411144
5261.03163672
5309.40248482
5309.38130235
5309.07424664
5308.57311781
5307.86120097
5306.94395858
5305.84669473
5304.56950122
5303.13706072
5301.55845668
5299.85510889
5298.04192905
5296.1385997
5294.1623584
5292.1318084
5290.06442748
5287.97764315
5285.88799303
5283.81133391
5281.76252495
5279.75543999
5277.80281858
5275.91626625
5274.10616029
5272.38176712
5270.75102875
5269.22105826
5267.79739651
5266.48552453
5265.28851983
5264.21126638
5263.25412784
5262.42268629
5261.71431824
5261.13532963
5260.68372228
5260.35656561
5260.1782059
5260.08122572
5260.19703461
5307.06270962
5307.04930598
5306.74459015
5306.2467645
5305.53526781
5304.61748244
5303.51890519
5302.24036133
5300.80743666
5299.22992871
5297.53017734
5295.72384121
5293.83140248
5291.87076748
5289.86115836
5287.82055163
5285.76677275
5283.71662406
5281.68610024
5279.69005991
5277.74223816
5275.85509302
5274.0398146
5272.30623059
5270.6629444
5269.11711552
5267.67498211
5266.3411119
5265.11999603
5264.0136325
5263.02587027
5262.15595524
5261.40845021
5260.77981106
5260.27505428
5259.89223351
5259.62547479
5259.50318522
5259.44773967
5259.60356927
5304.72552609
5304.72030978
5304.41861606
5303.92519288
5303.21558013
5302.29913722
5301.20156412
5299.9244577
5298.4943305
5296.92172542
5295.22992582
5293.43536017
5291.55932343
5289.62040069
5287.63843459
5285.63189409
5283.61898502
5281.61675212
5279.64129303
5277.70742517
5275.82869051
5274.01720427
5272.28367377
5270.6373012
5269.08594145
5267.63587823
5266.2923836
5265.05894603
5263.93896004
5262.93323238
5262.04445011
5261.27064312
5260.6152327
5260.07364401
5259.64946631
5259.34077502
5259.13854238
5259.07540526
5259.06304653
5259.25957899
5302.40572285
5302.40903478
5302.11106812
5301.62312453
5300.91687584
5300.00368635
5298.90947172
5297.63663686
5296.21264208
5294.64880294
5292.96936419
5291.19154258
5289.33745385
5287.42636557
5285.47873802
5283.51351906
5281.54927303
5279.6032595
5277.69164197
5275.82914677
5274.0290686
5272.30311969
5270.66145489
5269.11257584
5267.66350371
5266.31955218
5265.08494382
5263.96199784
5262.95289731
5262.05714376
5261.27619003
5260.60672532
5260.05091631
5259.60308413
5259.26528088
5259.03557261
5258.90161802
5258.90042993
5258.93284254
5259.17031345
5300.11786184
5300.12992692
5299.83646508
5299.35499269
5298.6535481
5297.74548221
5296.65695042
5295.39119113
5293.97663318
5292.42538554
5290.7626667
5289.00649329
5287.17980403
5285.30254792
5283.39578979
5281.47893879
5279.5708937
5277.68909375
5275.8497261
5274.0673751
5272.35503381
5270.72395048
5269.18366121
5267.74189058
5266.40474064
5265.17648125
5264.06020115
5263.05696608
5262.16764785
5261.39034875
5260.7252188
5260.16750352
5259.71801884
5259.36991496
5259.12362221
5258.97715771
5258.91474265
5258.977833
5259.05652375
5259.33579733
5297.87608642
5297.89704393
5297.6088089
5297.13474094
5296.43945288
5295.5382988
5294.45768554
5293.20170822
5291.79977929
5290.26481628
5288.62301896
5286.89320741
5285.0991395
5283.26143745
5281.40175185
5279.53993099
5277.69517771
5275.88507151
5274.1257756
5272.43168599
5270.81543718
5269.28775364
5267.85748496
5266.53150496
5265.31493041
5264.21092402
5263.22135795
5262.34595744
5261.5842342
5260.93281037
5260.39040119
5259.95077558
5259.61334804
5259.36995959
5259.21934595
5259.15945937
5259.17094216
5259.29974009
5259.425071
5259.74581255
5295.69428651
5295.72418286
5295.44171882
5294.97586991
5294.28796594
5293.39535943
5292.32474251
5291.08107682
5289.69477267
5288.17956274
5286.56262828
5284.86358886
5283.10701003
5281.31417059
5279.50728364
5277.70660763
5275.93161209
5274.19997347
5272.5277889
5270.92921267
5269.41646883
5267.99969673
5266.68699198
5265.48431645
5264.39576682
5263.42332129
5262.56755983
5261.82678958
5261.19912665
5260.6796769
5260.26560872
5259.94914169
5259.72823824
5259.5933672
5259.54149605
5259.57041023
5259.6572416
5259.85237706
5260.02423645
5260.38568444
5293.58556814
5293.62439949
5293.34807983
5292.89110399
5292.21165327
5291.32903844
5290.27028637
5289.04122268
5287.67326786
5286.18096644
5284.59247441
5282.92819989
5281.21349615
5279.47027329
5277.72127822
5275.98714507
5274.28756743
5272.64027615
5271.06125658
5269.56437086
5268.16137916
5266.86177881
5265.6728522
5264.59962287
5263.64510089
5262.81003212
5262.09361872
5261.49275521
5261.00409094
5260.62113259
5260.33950482
5260.14981677
5260.04846917
5260.0245794
5260.07329687
5260.19213946
5260.35476315
5260.6159753
5260.83364136
5261.23470534
5291.56284027
5291.61048127
5291.34049153
5290.89279528
5290.22262552
5289.35117377
5288.30587341
5287.09339007
5285.74616587
5284.2795387
5282.72262651
5281.09660235
5279.42757878
5277.7380647
5276.05130386
5274.38826413
5272.76882094
5271.21071506
5269.72977056
5268.33951157
5267.0511818
5265.87357819
5264.81315683
5263.87395529
5263.05783767
5262.36424104
5261.79105761
5261.3336901
5260.98726625
5260.74360771
5260.59689985
5260.53604518
5260.55585581
5260.64405179
5260.79397806
5261.00286151
5261.24087488
5261.56710157
5261.8293225
5262.26844677
5289.63762536
5289.69378626
5289.43019021
5288.99195966
5288.33167579
5287.47228316
5286.4417194
5285.24744435
5283.92293519
5282.48429013
5280.96157112
5279.37667882
5277.75644951
5276.12395094
5274.50288009
5272.91449158
5271.37879866
5269.91350657
5268.53423081
5267.25411199
5266.08383148
5265.03145531
5264.10258961
5263.300242
5262.62506075
5262.07523243
5261.64730156
5261.33515942
5261.13232368
5261.02904146
5261.01789688
5261.08616149
5261.22710018
5261.42691818
5261.6772126
5261.97486895
5262.28670637
5262.67581337
5262.98056648
5263.45555116
5287.82208141
5287.88618843
5287.62874329
5287.19976824
5286.54960983
5285.70278437
5284.68785632
5283.51300178
5282.21274326
5280.80388638
5279.317408
5277.77588236
5276.206826
5274.6338129
5273.08094276
5271.569707
5270.12020988
5268.75007646
5267.47466786
5266.30669124
5265.25624089
5264.3306597
5263.53462169
5262.87005785
5262.33651116
5261.93087645
5261.64828002
5261.48106064
5261.42130181
5261.45760325
5261.58096912
5261.7769643
5262.03742185
5262.34699474
5262.69561135
5263.0796922
5263.46292229
5263.91212682
5264.25703518
5264.76528943
5286.12535285
5286.19658151
5285.94494344
5285.52476177
5284.88474345
5284.05069525
5283.05197182
5281.89735523
5280.62242974
5279.24463419
5277.7958276
5276.29918875
5274.78286491
5273.27087191
5271.78765873
5270.354903
5268.99275334
5267.71870397
5266.54782459
5265.4923636
5264.56180599
5263.76271922
5263.09884697
5262.57110363
5262.17790641
5261.91482026
5261.77554626
5261.7509947
5261.83178874
5262.00489371
5262.25976743
5262.580275
5262.95684761
5263.3725582
5263.81580286
5264.28235122
5264.73308349
5265.2381735
5265.61976471
5266.15816372
5284.55947029
5284.63650402
5284.38980429
5283.97736657
5283.34699963
5282.52545005
5281.54304272
5280.40900999
5279.16000923
5277.8140006
5276.40368295
5274.95274684
5273.48991117
5272.03955635
5270.62642581
5269.27232419
5267.99739322
5266.81895327
5265.75175896
5264.80757657
5263.99523985
5263.32051758
5262.78630209
5262.39252146
5262.13638723
5262.01217365
5262.01229615
5262.12624013
5262.343156
5262.64837924
5263.03000797
5263.47021369
5263.95803532
5264.47496465
5265.00804456
5265.55222565
5266.06604592
5266.62213716
5267.03678111
5267.60131892
5283.129802
5283.2109036
5282.96827134
5282.56233754
5281.94101067
5281.13148119
5280.16526097
5279.05183815
5277.8289613
5276.51497345
5275.14337126
5273.73824282
5272.32882039
5270.93976364
5269.59605486
5268.31956014
5267.13037099
5266.04560962
5265.07968385
5264.24383585
5263.54624955
5262.99195093
5262.58298174
5262.3182634
5262.19388918
5262.20290244
5262.33648314
5262.58268389
5262.92926676
5263.36002525
5263.86173468
5264.41484853
5265.00716407
5265.61855685
5266.2348662
5266.85002126
5267.42073268
5268.0214147
5268.46386497
5269.05033664
5281.84961831
5281.93231946
5281.69205361
5281.2906513
5280.67710479
5279.87856283
5278.92789059
5277.83459986
5276.63752911
5275.35522246
5274.02192545
5272.66197437
5271.30505381
5269.97599898
5268.69996987
5267.49883046
5266.39258796
5265.39812935
5264.52948782
5263.79736672
5263.20932305
5262.76967856
5262.47963881
5262.33716179
5262.33730297
5262.47195473
5262.73107547
5263.10137053
5263.56937028
5264.11736954
5264.73088861
5265.38866218
5266.07753413
5266.77563407
5267.46787815
5268.14690504
5268.76817345
5269.40647844
5269.87156635
5270.47392072
5280.71835393
5280.79951907
5280.55999945
5280.16115304
5279.55422084
5278.76573237
5277.83002258
5276.75636768
5275.58468438
5274.33348977
5273.03774062
5271.72185347
5270.41591044
5269.14481231
5267.93384778
5266.80482109
5265.77762065
5264.86886249
5264.09220691
5263.45783095
5262.97265565
5262.64031585
5262.46130939
5262.43267976
5262.54843353
5262.79940371
5263.17448126
5263.65906994
5264.23855785
5264.89375975
5265.60910018
5266.36159877
5267.13730382
5267.91245239
5268.67154886
5269.40546604
5270.06917089
5270.7369061
5271.21794385
5271.82952055
5279.75206897
5279.82790747
5279.58650568
5279.18771191
5278.58547742
5277.80549412
5276.88347999
5275.82825017
5274.68078746
5273.4593013
5272.19943928
5270.92548716
5269.66787219
5268.45143396
5267.30154607
5266.23988336
5265.28618638
5264.45678117
5263.76495171
5263.22033472
5262.82928402
5262.59480149
5262.51673219
5262.59125843
5262.81150863
5263.16728767
5263.64656258
5264.23354986
5264.91263731
5265.66319831
5266.46884073
5267.30485788
5268.15673533
5268.99874363
5269.81520789
5270.59480989
5271.29300395
5271.98124775
5272.47186895
5273.08117865
5278.94291798
5279.00843036
5278.76193753
5278.36080554
5277.76173285
5276.98951231
5276.08078643
5275.04366585
5273.92005039
5272.72754385
5271.50243628
5270.26867975
5269.05701957
5267.89212121
5266.79941651
5265.80039713
5264.91464194
5264.15818091
5263.54393288
5263.08096742
5262.77512453
5262.62891279
5262.64151914
5262.80829305
5263.12163919
5263.57047455
5264.14188897
5264.81901594
5265.58540898
5266.4189848
5267.30264514
5268.20999461
5269.1260814
5270.02311635
5270.88559641
5271.70000605
5272.42248747
5273.12136415
5273.61449915
5274.21132292
5278.30772876
5278.35867774
5278.10389007
5277.69870601
5277.10058311
5276.33429033
5275.43688947
5274.41566824
5273.31350962
5272.14704183
5270.95324535
5269.75547708
5268.58479
5267.46553538
5266.42317838
5265.47896093
5264.65228947
5263.95888427
5263.41133393
5263.01813162
5262.78469101
5262.71312369
5262.80210249
5263.04621987
5263.43726664
5263.96341292
5264.6111077
5265.36246973
5266.2004705
5267.10171015
5268.04868473
5269.01324214
5269.98047687
5270.92038129
5271.81773555
5272.65653082
5273.39429102
5274.0934679
5274.58080605
5275.14982252
5277.8378171
5277.86617824
5277.59645226
5277.18490913
5276.58692081
5275.82774701
5274.94313765
5273.93949517
5272.86002997
5271.72031091
5270.55782086
5269.39528074
5268.264006
5267.18800625
5266.19277215
5265.29927714
5264.52675101
5263.89060504
5263.40315775
5263.07227281
5262.90303271
5262.89712574
5263.05280531
5263.36400652
5263.82194252
5264.41419491
5265.12667264
5265.94061334
5266.83842857
5267.79544036
5268.79367754
5269.80324299
5270.80889642
5271.77871898
5272.69725856
5273.54683063
5274.28529704
5274.97028325
5275.43917796
5275.95981389
5277.5313871
5277.53401768
5277.24927608
5276.83293634
5276.23362893
5275.47881807
5274.6031073
5273.61192573
5272.54933525
5271.42948186
5270.29051995
5269.15431197
5268.05244593
5267.00849595
5266.04795553
5265.19150375
5264.45819384
5263.86313093
5263.41851098
5263.13154457
5263.0070684
5263.04682192
5263.24857465
5263.60575797
5264.10922612
5264.74607786
5265.502018
5266.35762228
5267.29507092
5268.28859971
5269.32016402
5270.35801079
5271.38718077
5272.374201
5273.30381455
5274.15666639
5274.89021465
5275.55660683
5275.99664438
5276.45400322
5277.40950149
5277.37348531
5277.0717024
5276.64999108
5276.05438009
5275.31023641
5274.44889959
5273.47576703
5272.4337732
5271.33700684
5270.2233647
5269.11462505
5268.04230012
5267.02983088
5266.10258343
5265.28103294
5264.58405776
5264.02654043
5263.62054862
5263.37299793
5263.28773812
5263.36695183
5263.60825987
5264.00439518
5264.54623246
5265.22045545
5266.0124473
5266.90249033
5267.87235256
5268.89570865
5269.9536349
5271.01406863
5272.06001143
5273.05675793
5273.98499908
5274.82585045
5275.53210091
5276.15068256
5276.52713545
5276.87497004
5336.35319271
5336.19362704
5335.864561
5335.35909462
5334.70343139
5333.87678428
5332.90653188
5331.78186864
5330.52251722
5329.12800748
5327.61304683
5325.98375834
5324.25290287
5322.43021986
5320.5281476
5318.55831882
5316.53345259
5314.46615947
5312.36946541
5310.25641826
5308.14017625
5306.03374951
5303.95020627
5301.90234687
5299.90281638
5297.96378732
5296.09739804
5294.31475673
5292.6275899
5291.0452139
5289.57952961
5288.23670218
5287.03022228
5285.9608788
5285.04579014
5284.2781044
5283.67868863
5283.23680094
5282.96311429
5282.86778156
5336.17835681
5336.04658111
5335.73650838
5335.24073146
5334.59257419
5333.77176973
5332.80621486
5331.68581962
5330.43008245
5329.03914496
5327.52753359
5325.90174507
5324.17445207
5322.35557481
5320.45752994
5318.4920227
5316.47175533
5314.40935463
5312.31782376
5310.21020798
5308.09962221
5305.99902103
5303.92140921
5301.87951728
5299.88589941
5297.95266881
5296.09182823
5294.31437749
5292.6317935
5291.05323247
5289.59013267
5288.24842259
5287.04084532
5285.96775076
5285.04551617
5284.2660013
5283.65061151
5283.18264687
5282.88215335
5282.7478928
5335.80773933
5335.69463874
5335.40238176
5334.91385128
5334.26913669
5333.44910518
5332.48260084
5331.36090742
5330.10297262
5328.70982862
5327.19554172
5325.56707592
5323.8369176
5322.0152232
5320.11437821
5318.14621187
5316.12344829
5314.05878049
5311.96523211
5309.85588284
5307.74382179
5305.64206281
5303.56359307
5301.52113846
5299.5271879
5297.59377095
5295.73277159
5293.95512998
5292.27209987
5290.69281073
5289.22828672
5287.88451282
5286.67350665
5285.59564975
5284.66626757
5283.8762418
5283.24680341
5282.7565067
5282.43431901
5282.27698276
5335.23901597
5335.13445357
5334.84888996
5334.3638395
5333.72022977
5332.89980746
5331.93137801
5330.80711477
5329.54556665
5328.14846894
5326.62962814
5324.99644413
5323.26133034
5321.43469979
5319.52897108
5317.55612889
5315.52895971
5313.46024735
5311.36306657
5309.25053646
5307.13575572
5305.03174194
5302.95145531
5300.90755016
5298.91245382
5296.97811541
5295.11627446
5293.33774464
5291.65351663
5290.0725728
5288.60550194
5287.25817832
5286.04202853
5284.95742788
5284.01933976
5283.2187173
5282.5781595
5282.0761032
5281.74820177
5281.59261512
5334.49797896
5334.40012526
5334.11766291
5333.63358717
5332.98802197
5332.16397238
5331.19016193
5330.05964721
5328.79071823
5327.3857352
5325.85834264
5324.21633069
5322.47209924
5320.63631154
5318.72146322
5316.7397119
5314.70394253
5312.62705648
5310.52220942
5308.40258477
5306.28131482
5304.17145876
5302.08595979
5300.03743905
5298.03827721
5296.10035166
5294.23528434
5292.4537885
5290.76665454
5289.18277463
5287.71243218
5286.36149477
5285.14098015
5284.05142001
5283.10741003
5282.30029287
5281.65286994
5281.14478841
5280.81328178
5280.66106571
5333.56373141
5333.47098259
5333.18899172
5332.70431638
5332.05509966
5331.22572103
5330.24463794
5329.10562544
5327.82687322
5326.41126041
5324.87243348
5323.21854804
5321.46209735
5319.61401151
5317.68692812
5315.69320573
5313.6458728
5311.55797499
5309.44277937
5307.31355245
5305.18349004
5303.06568723
5300.97308469
5298.91827822
5296.91359159
5294.97082468
5293.10147953
5291.31615534
5289.62545912
5288.03817472
5286.56435065
5285.20984427
5283.98543795
5282.89192165
5281.943759
5281.13315325
5280.48280116
5279.97486193
5279.64475277
5279.50150057
5332.46604542
5332.37751671
5332.09438739
5331.60764692
5330.95306914
5330.11644296
5329.12600678
5327.97615773
5326.68514284
5325.25628922
5323.70336762
5322.03488161
5320.26349852
5318.40042801
5316.45850228
5314.45030461
5312.38904298
5310.28793247
5308.16037665
5306.01974485
5303.87931328
5301.7522267
5299.65143014
5297.58950121
5295.57871216
5293.63078888
5291.75712687
5289.96821731
5288.27452089
5286.68472856
5285.20873071
5283.85239469
5282.6263731
5281.53171292
5280.58275934
5279.77256847
5279.12324308
5278.61947517
5278.29352798
5278.16031959
5331.19399071
5331.10943272
5330.82498699
5330.33570743
5329.67506662
5328.83013953
5327.82903909
5326.66670803
5325.36160254
5323.9174642
5322.34831729
5320.66302222
5318.87451166
5316.99430546
5315.03548899
5313.01090342
5310.93397506
5308.8181158
5306.67689211
5304.52379627
5302.37219833
5300.23529726
5298.12604755
5296.05700853
5294.04039619
5292.08785514
5290.21066968
5288.41921124
5286.7237984
5285.13301113
5283.65661042
5282.30044445
5281.07508894
5279.98181191
5279.03483158
5278.22803943
5277.58261867
5277.08604024
5276.76607629
5276.6449323
5329.76979353
5329.68871202
5329.40217173
5328.90950206
5328.24186165
5327.38753082
5326.37457485
5325.19840515
5323.8777972
5322.41687711
5320.83001781
5319.12644788
5317.31943354
5315.42083364
5313.44403699
5311.40217311
5309.30892097
5307.17791291
5305.02289856
5302.85750736
5300.69521232
5298.54926895
5296.43264021
5294.35786108
5292.33708276
5290.38185609
5288.50334532
5286.71178643
5285.0173554
5283.42850305
5281.95487627
5280.60227387
5279.38121662
5278.29313233
5277.35210536
5276.55273493
5275.91515494
5275.42929317
5275.1183028
5275.01043396
5328.19372429
5328.11625851
5327.8278238
5327.33171419
5326.65687989
5325.79269292
5324.76727864
5323.57647569
5322.23949543
5320.76085114
5319.15535781
5317.43264397
5315.60637881
5313.68879696
5311.69364236
5309.63436739
5307.52493768
5305.3792305
5303.21119529
5301.03461132
5298.86306009
5296.70985123
5294.58795001
5292.50985358
5290.487631
5288.53271512
5286.65612604
5284.86793389
5283.178147
5281.59504375
5280.12813387
5278.78310068
5277.57037926
5276.49145001
5275.56019994
5274.77179868
5274.14517394
5273.67267255
5273.37239437
5273.27919148
5326.482757
5326.40884158
5326.11822302
5325.61837572
5324.93602581
5324.06159613
5323.02333267
5321.81746619
5320.46372126
5318.96700002
5317.34263117
5315.6006701
5313.75524906
5311.81901251
5309.80610243
5307.73032529
5305.60596221
5303.44715446
5301.2680683
5299.08263706
5296.90454993
5294.74716319
5292.62343155
5290.54579281
5288.52620872
5286.57596266
5284.70589678
5282.92587269
5281.24569657
5279.67342219
5278.21838473
5276.88608383
5275.68683202
5274.62206286
5273.70541972
5272.93250712
5272.32097814
5271.8653915
5271.57867723
5271.50164065
5324.64448416
5324.57444928
5324.28189167
5323.77852223
5323.08882532
5322.20424729
5321.1532244
5319.93236957
5318.56200046
5317.04742899
5315.40456805
5313.64393475
5311.780181
5309.82640116
5307.7971772
5305.70669882
5303.56958936
5301.40027224
5299.21314036
5297.02228516
5294.84149699
5292.68416535
5290.56321335
5288.49099131
5286.47931822
5284.53928581
5282.68151173
5280.91559281
5279.25107753
5277.69572339
5276.25862799
5274.94501402
5273.76499851
5272.71984666
5271.8228737
5271.06998226
5270.47743998
5270.04199349
5269.7710661
5269.71174258
5322.69384605
5322.62793023
5322.33349143
5321.82677427
5321.12993809
5320.23548002
5319.17206553
5317.93668823
5316.55031934
5315.01870048
5313.35838523
5311.58038719
5309.69992678
5307.73058313
5305.68741465
5303.58502145
5301.43839058