/*--------------------------------*- C++ -*----------------------------------*\
| =========                 |                                                 |
| \\      /  F ield         | foam-extend: Open Source CFD                    |
|  \\    /   O peration     | Version:     4.1                                |
|   \\  /    A nd           | Web:         http://www.foam-extend.org         |
|    \\/     M anipulation  |                                                 |
\*---------------------------------------------------------------------------*/
FoamFile
{
    version     2.0;
    format      ascii;
    class       regIOobject;
    location    "0.1/uniform";
    object      profilingInfo;
}
// * * * * * * * * * * * * * * * * * * * * * * * * * * * * * * * * * * * * * //

profilingInfo
(

    {
        id              27;
        parentId        26;
        description     "Foam::Time::writeObject - outputTime";
        calls           1;
        totalTime       0.881613;
        childTime       0;
        onStack         1;
    }

    {
        id              26;
        parentId        1;
        description     "Foam::Time::writeObject";
        calls           11;
        totalTime       0.881715;
        childTime       0.881613;
        onStack         1;
    }

    {
        id              1;
        description     "application::main";
        calls           1;
        totalTime       17.11652;
        childTime       8.066381;
        onStack         1;
    }

    {
        id              9;
        parentId        1;
        description     "MULES::explicitSolve";
        calls           33;
        totalTime       0.725437;
        childTime       0;
        onStack         0;
    }

    {
        id              4;
        parentId        1;
        description     "functionObjectList::read";
        calls           1;
        totalTime       7e-06;
        childTime       0;
        onStack         0;
    }

    {
        id              10;
        parentId        1;
        description     "fvMatrix::solve_U";
        calls           11;
        totalTime       1.336447;
        childTime       1.288657;
        onStack         0;
    }

    {
        id              5;
        parentId        1;
        description     "fvMatrix::solve_cellDisplacement";
        calls           11;
        totalTime       0.223167;
        childTime       0.176354;
        onStack         0;
    }

    {
        id              22;
        parentId        1;
        description     "fvMatrix::solve_epsilon";
        calls           11;
        totalTime       0.279702;
        childTime       0.219106;
        onStack         0;
    }

    {
        id              24;
        parentId        1;
        description     "fvMatrix::solve_k";
        calls           11;
        totalTime       0.291736;
        childTime       0.283661;
        onStack         0;
    }

    {
        id              2;
        parentId        1;
        description     "fvMatrix::solve_pcorr";
        calls           1;
        totalTime       0.003828;
        childTime       0.003052;
        onStack         0;
    }

    {
        id              17;
        parentId        1;
        description     "fvMatrix::solve_pd";
        calls           44;
        totalTime       4.324342;
        childTime       4.293695;
        onStack         0;
    }

    {
        id              12;
        parentId        11;
        description     "lduMatrix::smoother_Ux";
        calls           11;
        totalTime       0.382589;
        childTime       0;
        onStack         0;
    }

    {
        id              14;
        parentId        13;
        description     "lduMatrix::smoother_Uy";
        calls           11;
        totalTime       0.385247;
        childTime       0;
        onStack         0;
    }

    {
        id              16;
        parentId        15;
        description     "lduMatrix::smoother_Uz";
        calls           11;
        totalTime       0.41501;
        childTime       0;
        onStack         0;
    }

    {
        id              11;
        parentId        10;
        description     "lduMatrix::solver_Ux";
        calls           11;
        totalTime       0.417422;
        childTime       0.382589;
        onStack         0;
    }

    {
        id              13;
        parentId        10;
        description     "lduMatrix::solver_Uy";
        calls           11;
        totalTime       0.41987;
        childTime       0.385247;
        onStack         0;
    }

    {
        id              15;
        parentId        10;
        description     "lduMatrix::solver_Uz";
        calls           11;
        totalTime       0.451365;
        childTime       0.41501;
        onStack         0;
    }

    {
        id              6;
        parentId        5;
        description     "lduMatrix::solver_cellDisplacementx";
        calls           11;
        totalTime       0.073449;
        childTime       0;
        onStack         0;
    }

    {
        id              7;
        parentId        5;
        description     "lduMatrix::solver_cellDisplacementy";
        calls           11;
        totalTime       0.051341;
        childTime       0;
        onStack         0;
    }

    {
        id              8;
        parentId        5;
        description     "lduMatrix::solver_cellDisplacementz";
        calls           11;
        totalTime       0.051564;
        childTime       0;
        onStack         0;
    }

    {
        id              19;
        parentId        18;
        description     "lduMatrix::solver_coarsestLevelCorr";
        calls           91;
        totalTime       0.002135;
        childTime       0;
        onStack         0;
    }

    {
        id              21;
        parentId        20;
        description     "lduMatrix::solver_coarsestLevelCorr";
        calls           56;
        totalTime       0.000961;
        childTime       0;
        onStack         0;
    }

    {
        id              20;
        parentId        18;
        description     "lduMatrix::solver_dummy";
        calls           11;
        totalTime       2.362934;
        childTime       0.000961;
        onStack         0;
    }

    {
        id              23;
        parentId        22;
        description     "lduMatrix::solver_epsilon";
        calls           11;
        totalTime       0.219106;
        childTime       0;
        onStack         0;
    }

    {
        id              25;
        parentId        24;
        description     "lduMatrix::solver_k";
        calls           11;
        totalTime       0.283661;
        childTime       0;
        onStack         0;
    }

    {
        id              3;
        parentId        2;
        description     "lduMatrix::solver_pcorr";
        calls           1;
        totalTime       0.003052;
        childTime       0;
        onStack         0;
    }

    {
        id              18;
        parentId        17;
        description     "lduMatrix::solver_pd";
        calls           44;
        totalTime       4.293695;
        childTime       2.365069;
        onStack         0;
    }
);


// ************************************************************************* //
