/*--------------------------------*- C++ -*----------------------------------*\
| =========                 |                                                 |
| \\      /  F ield         | foam-extend: Open Source CFD                    |
|  \\    /   O peration     | Version:     4.1                                |
|   \\  /    A nd           | Web:         http://www.foam-extend.org         |
|    \\/     M anipulation  |                                                 |
\*---------------------------------------------------------------------------*/
FoamFile
{
    version     2.0;
    format      ascii;
    class       volScalarField;
    location    "0.5";
    object      alpha1;
}
// * * * * * * * * * * * * * * * * * * * * * * * * * * * * * * * * * * * * * //

dimensions      [0 0 0 0 0 0 0];

internalField   nonuniform List<scalar> 
96000
(
0.999998594555
0.99999855211
0.999998745475
0.999998927411
0.999998934845
0.999998770182
0.99999859743
0.999998462802
0.999998372579
0.999998313013
0.999998258417
0.999998187594
0.999998168282
0.999998156459
0.999998145701
0.999998139141
0.999998131086
0.999998119875
0.999998107048
0.999998090687
0.999998076385
0.999998064824
0.999998055068
0.999998048712
0.99999804468
0.999998042346
0.999998040859
0.999998040744
0.999998039896
0.999998037864
0.999998038581
0.999998048215
0.999998060854
0.999998093517
0.999998177996
0.999998237084
0.999998266075
0.999998258722
0.999998252489
0.999998637864
0.999998557916
0.999998618348
0.999998888623
0.999999056436
0.999999018216
0.999998849929
0.999998671116
0.999998540009
0.999998454938
0.999998393439
0.999998339538
0.999998293033
0.999998257746
0.999998236142
0.999998224598
0.999998216352
0.999998206303
0.999998192177
0.999998175349
0.999998157987
0.999998140727
0.999998126239
0.999998116692
0.999998111245
0.999998109537
0.999998110276
0.999998110895
0.999998110825
0.999998108081
0.999998103273
0.999998100627
0.999998109656
0.999998141332
0.999998195373
0.999998256557
0.999998301525
0.99999831085
0.999998278275
0.999998276335
0.999998674537
0.999998767431
0.999998911242
0.999999215098
0.999999386788
0.999999352655
0.999999198146
0.999999033836
0.999998914507
0.999998839698
0.999998786594
0.999998740545
0.999998700925
0.999998672435
0.999998655779
0.999998646564
0.999998638643
0.999998628189
0.999998614613
0.999998599151
0.999998583745
0.999998570314
0.999998560411
0.999998554506
0.999998552248
0.999998552743
0.999998554879
0.999998557195
0.99999855658
0.999998551801
0.999998543596
0.99999853656
0.999998539546
0.999998563313
0.999998608146
0.999998656373
0.999998679799
0.999998654758
0.999998564308
0.999998452251
0.99999880355
0.999998984353
0.999999121837
0.999999429267
0.999999613969
0.999999595058
0.999999453894
0.99999930008
0.999999189101
0.999999122219
0.999999077383
0.999999039269
0.999999006778
0.999998984116
0.999998971943
0.999998965932
0.999998960423
0.999998951865
0.999998939956
0.999998926516
0.999998913824
0.999998903677
0.999998897133
0.999998894346
0.999998894738
0.999998897417
0.999998900806
0.999998902816
0.999998901217
0.999998893856
0.999998880761
0.999998867018
0.999998862505
0.999998879623
0.999998918288
0.999998957095
0.999998962723
0.999998903515
0.999998766741
0.999998612748
0.999998878518
0.999999047871
0.999999148458
0.999999458554
0.999999656679
0.999999655623
0.999999517603
0.999999368087
0.999999261112
0.999999199072
0.999999160695
0.999999128902
0.999999101816
0.999999083732
0.999999075774
0.999999073629
0.999999071322
0.999999065374
0.999999055816
0.999999044787
0.999999034696
0.999999027561
0.999999024244
0.999999024395
0.999999027543
0.999999032496
0.99999903782
0.999999041101
0.99999903929
0.999999030123
0.999999013109
0.999998993425
0.999998983105
0.999998995592
0.999999031714
0.999999067924
0.999999052464
0.999998952313
0.999998778157
0.999998613353
0.999998842773
0.999998961731
0.999999067946
0.999999387715
0.99999959475
0.99999959758
0.99999945992
0.999999307884
0.999999199141
0.999999136952
0.999999100318
0.999999071108
0.999999046128
0.999999028203
0.999999022484
0.99999902422
0.999999023541
0.99999901857
0.999999009444
0.999998997245
0.999998984674
0.999998975007
0.999998971472
0.999998971349
0.999998973815
0.999998977406
0.999998984463
0.999998990998
0.999998988671
0.999998973907
0.999998946845
0.999998913268
0.999998887998
0.999998891193
0.99999892657
0.999998965064
0.999998949329
0.999998843287
0.999998651904
0.99999844888
0.999998736989
0.999998858479
0.999998990364
0.999999320608
0.999999531081
0.999999532085
0.99999939193
0.999999235493
0.999999124033
0.999999060908
0.999999024281
0.999998995205
0.999998966887
0.99999895474
0.999998950498
0.999998948617
0.999998949266
0.999998943725
0.999998931556
0.999998919302
0.999998911279
0.999998907307
0.99999890358
0.99999890253
0.999998903438
0.999998905044
0.999998903799
0.999998898256
0.999998893118
0.999998876091
0.999998842035
0.999998797881
0.999998756867
0.999998746244
0.9999987836
0.999998834894
0.999998823661
0.99999872087
0.999998525473
0.99999830282
0.999998644484
0.999998852111
0.999998962047
0.999999298549
0.99999950962
0.999999508332
0.999999365099
0.999999204921
0.999999090515
0.999999031572
0.999998996001
0.999998966869
0.999998955196
0.999998949533
0.999998944536
0.999998939516
0.999998934222
0.999998928046
0.999998921129
0.999998913223
0.999998907433
0.999998903833
0.999998900232
0.999998899189
0.999998900079
0.999998901698
0.999998897785
0.999998887856
0.999998871496
0.999998844844
0.999998805175
0.999998760252
0.999998730674
0.999998716761
0.999998726384
0.999998752963
0.999998742551
0.999998642777
0.999998446697
0.99999824748
0.999998587775
0.999998850403
0.999998970659
0.999999307679
0.999999518395
0.999999515457
0.999999368434
0.999999206286
0.999999090785
0.99999903154
0.999998997525
0.999998969551
0.999998957524
0.999998953701
0.999998950875
0.999998947001
0.999998941976
0.999998935465
0.999998928457
0.999998920939
0.99999891273
0.999998908293
0.999998904083
0.999998902782
0.999998903136
0.999998904085
0.999998903701
0.999998896618
0.999998878923
0.99999884981
0.999998807499
0.999998757783
0.999998722075
0.999998708512
0.999998714958
0.999998724348
0.999998711646
0.999998609761
0.999998411849
0.999998230051
0.99999856075
0.999998849498
0.999998981409
0.99999931593
0.999999525996
0.999999522606
0.999999372655
0.999999209701
0.999999093798
0.999999032953
0.999999000404
0.999998976186
0.999998958382
0.999998953149
0.99999895227
0.999998952909
0.999998951148
0.999998944667
0.999998931212
0.999998923006
0.999998916137
0.999998909674
0.999998905286
0.99999890385
0.999998904386
0.999998905205
0.999998905003
0.999998901882
0.999998886327
0.999998858697
0.999998814839
0.999998757191
0.999998711538
0.999998693951
0.999998700647
0.999998717858
0.999998699578
0.999998591645
0.999998392776
0.999998212026
0.999998545478
0.999998856787
0.999998972775
0.999999305503
0.999999515397
0.999999512377
0.999999360603
0.999999196946
0.99999908088
0.999999020338
0.999998989451
0.999998968751
0.999998953103
0.999998945213
0.999998946141
0.999998949886
0.999998950055
0.999998943739
0.999998931451
0.999998918241
0.999998908525
0.999998900854
0.999998896727
0.99999889562
0.999998896891
0.99999889803
0.99999889766
0.999998893366
0.999998882144
0.999998856428
0.999998810307
0.999998749013
0.99999869739
0.999998672069
0.999998680331
0.999998703837
0.99999867777
0.999998564924
0.99999836582
0.999998158912
0.999998525695
0.999998840079
0.999998944074
0.999999277148
0.999999487578
0.999999485482
0.999999333258
0.999999169079
0.999999052475
0.999998992774
0.999998965009
0.999998944944
0.999998930513
0.99999892568
0.999998928687
0.999998933105
0.99999893353
0.999998927158
0.999998915555
0.999998901513
0.999998889049
0.99999888069
0.999998877257
0.999998877146
0.999998878941
0.999998880535
0.999998879928
0.999998874042
0.999998862643
0.999998835661
0.999998788295
0.999998727286
0.999998671535
0.999998643723
0.999998656325
0.999998670383
0.999998640794
0.999998527727
0.99999832679
0.999998106442
0.999998499024
0.999998800422
0.999998905866
0.99999924033
0.999999452006
0.999999451602
0.999999299851
0.999999135592
0.999999019023
0.999998960442
0.999998933608
0.999998915389
0.999998903386
0.999998900192
0.999998903926
0.999998909075
0.999998909067
0.999998902014
0.999998890452
0.999998877254
0.999998865083
0.999998856969
0.999998854732
0.99999885574
0.999998857091
0.999998858793
0.999998857666
0.99999885095
0.99999883695
0.999998807
0.999998755852
0.999998692851
0.999998638458
0.999998607565
0.999998619251
0.999998630637
0.999998601561
0.999998489879
0.999998287381
0.999998100332
0.999998473406
0.999998761572
0.999998867124
0.999999203034
0.999999416346
0.99999941837
0.999999267381
0.999999103493
0.999998987096
0.999998929349
0.99999890407
0.999998887835
0.999998877777
0.99999887558
0.999998879776
0.999998884812
0.999998885203
0.999998878593
0.999998867117
0.999998853705
0.999998841874
0.999998835033
0.999998832866
0.999998832923
0.999998834442
0.99999883631
0.999998834802
0.999998828641
0.999998813841
0.99999878078
0.999998725993
0.999998662855
0.999998610744
0.999998565777
0.999998568826
0.999998600182
0.999998572735
0.99999846167
0.999998259702
0.999998096576
0.999998457389
0.999998729212
0.999998831119
0.999999167726
0.999999382723
0.999999387617
0.999999237292
0.999999073875
0.99999895743
0.999998900662
0.99999887712
0.999998862059
0.999998852739
0.999998851405
0.999998855643
0.999998860674
0.999998862393
0.999998856375
0.99999884343
0.999998828853
0.999998817103
0.999998811966
0.999998810575
0.999998810655
0.999998813647
0.999998816417
0.999998815221
0.999998809693
0.999998793173
0.999998757895
0.999998707257
0.999998643517
0.999998574002
0.999998542202
0.999998549844
0.99999858263
0.99999855696
0.999998447612
0.99999824817
0.999998098963
0.999998455392
0.999998699958
0.999998796773
0.999999133214
0.999999349721
0.999999357604
0.999999207737
0.999999044625
0.999998927924
0.999998871869
0.999998848944
0.999998834535
0.99999882563
0.999998824447
0.999998829431
0.999998834858
0.999998835724
0.999998828898
0.999998815362
0.999998801705
0.999998791344
0.999998786213
0.9999987862
0.99999878926
0.99999879268
0.999998794578
0.999998795857
0.999998790079
0.999998771083
0.999998739711
0.999998692299
0.999998618892
0.999998543071
0.999998538275
0.999998547155
0.999998575848
0.99999855204
0.999998447099
0.999998252439
0.999998107712
0.999998468114
0.999998670088
0.99999876197
0.999999097784
0.999999315607
0.999999326437
0.999999176895
0.999999013818
0.999998896768
0.999998840537
0.999998817774
0.999998803508
0.999998794796
0.999998793724
0.999998799392
0.999998804763
0.999998803274
0.999998796348
0.999998784219
0.999998771517
0.99999876234
0.999998757145
0.999998759029
0.99999876478
0.99999876677
0.999998767704
0.999998770904
0.999998764259
0.999998745833
0.999998718357
0.999998669179
0.999998588095
0.999998540628
0.999998536659
0.999998547808
0.999998571582
0.999998554632
0.999998456754
0.999998270441
0.999998126305
0.999998492427
0.999998638529
0.999998725879
0.999999060962
0.999999280028
0.999999293867
0.999999144654
0.999998981436
0.999998863508
0.999998806718
0.999998784574
0.999998770179
0.999998761465
0.999998760423
0.999998765345
0.999998771228
0.999998770274
0.999998762228
0.999998750445
0.999998739035
0.999998731295
0.999998727786
0.999998729999
0.999998734977
0.999998738215
0.999998741541
0.999998737549
0.999998727455
0.999998715299
0.99999869868
0.999998641635
0.999998550029
0.999998539491
0.999998536621
0.999998550192
0.999998567522
0.999998564472
0.999998473369
0.999998298257
0.999998163566
0.99999852493
0.99999860713
0.999998688996
0.999999023335
0.999999243752
0.999999260854
0.999999112066
0.99999894885
0.999998829361
0.999998772234
0.999998750716
0.999998735833
0.999998727374
0.999998726611
0.999998731204
0.999998736849
0.999998737995
0.999998729876
0.999998718653
0.999998708358
0.999998700891
0.999998699666
0.999998703846
0.999998708423
0.999998715484
0.999998720039
0.999998713361
0.99999870116
0.999998685603
0.999998679582
0.999998609826
0.999998543437
0.99999853937
0.999998538316
0.999998553712
0.999998579759
0.999998581757
0.999998495177
0.999998331037
0.999998213775
0.999998562078
0.999998576468
0.999998651741
0.999998985558
0.999999207697
0.999999228513
0.999999080255
0.999998917376
0.999998795488
0.999998738322
0.999998718498
0.999998703385
0.999998693941
0.999998693635
0.999998699751
0.999998704778
0.99999870543
0.999998700606
0.999998690926
0.999998681983
0.999998676671
0.999998678155
0.999998683913
0.999998689912
0.999998696382
0.999998701574
0.999998706125
0.999998697177
0.999998680406
0.999998659656
0.999998595916
0.999998543259
0.999998539769
0.999998541928
0.99999856308
0.999998600751
0.999998599682
0.999998524778
0.999998370504
0.999998240328
0.999998611708
0.99999854335
0.999998613682
0.999998947977
0.999999172353
0.99999919735
0.999999049537
0.999998887072
0.999998763118
0.999998705904
0.999998686246
0.999998672107
0.999998662526
0.999998662443
0.99999866903
0.999998674736
0.999998676661
0.999998674056
0.999998665698
0.999998658133
0.99999865725
0.999998662983
0.999998668849
0.999998676109
0.999998683111
0.999998690581
0.999998696684
0.999998692055
0.999998679305
0.999998652113
0.99999859913
0.999998545615
0.999998542604
0.999998546766
0.999998576229
0.9999986193
0.999998619082
0.99999856478
0.999998426708
0.999998274975
0.999998683836
0.999998507004
0.999998575848
0.999998910941
0.999999137789
0.99999916717
0.999999019491
0.99999885702
0.999998732119
0.999998674197
0.999998654754
0.999998639759
0.9999986312
0.999998632028
0.999998637817
0.999998646421
0.999998651109
0.999998647676
0.999998641563
0.999998637977
0.999998641372
0.999998648167
0.999998656169
0.999998666766
0.999998678917
0.999998687692
0.999998685708
0.999998679717
0.999998675169
0.999998652426
0.999998589538
0.999998548972
0.999998545788
0.999998553292
0.999998588952
0.999998639553
0.999998661107
0.999998622549
0.999998504247
0.999998397133
0.999998772305
0.999998471229
0.999998539091
0.999998874774
0.999999103756
0.99999913732
0.999998989516
0.999998826772
0.999998700579
0.999998641689
0.999998622869
0.999998606462
0.999998598056
0.999998598907
0.999998606485
0.999998617665
0.999998622731
0.999998621123
0.999998618581
0.999998619748
0.999998625022
0.999998631564
0.999998643671
0.99999866395
0.999998681385
0.999998684379
0.999998676729
0.999998671119
0.999998668189
0.999998651346
0.999998578074
0.999998553527
0.999998549418
0.999998561156
0.999998602129
0.999998683771
0.99999873378
0.999998695597
0.999998585588
0.999998522365
0.99999884983
0.999998442663
0.999998503465
0.999998838975
0.999999070033
0.999999107427
0.9999989591
0.999998795785
0.999998667958
0.999998607665
0.999998587786
0.999998571687
0.999998562732
0.999998563515
0.999998573638
0.999998584996
0.999998591051
0.999998593104
0.999998595411
0.999998599043
0.99999860514
0.9999986145
0.999998635217
0.999998662643
0.999998675744
0.99999867036
0.999998661155
0.999998659338
0.9999986554
0.999998647102
0.999998614431
0.999998558065
0.999998552009
0.999998570018
0.999998608434
0.99999869064
0.999998792073
0.99999876178
0.999998664023
0.999998674996
0.999998912005
0.999998414304
0.999998468533
0.999998803834
0.999999036716
0.999999077523
0.999998928206
0.999998764039
0.999998634238
0.999998571595
0.999998550893
0.999998535908
0.999998525166
0.99999852562
0.99999853752
0.999998549646
0.999998558461
0.999998564473
0.999998569586
0.999998574637
0.999998585297
0.999998603002
0.99999863409
0.999998653088
0.999998655586
0.999998654466
0.999998655484
0.999998652269
0.99999863612
0.999998616508
0.999998634982
0.999998546764
0.999998538611
0.999998569831
0.999998606968
0.999998680128
0.999998789899
0.999998803901
0.999998757356
0.999998804615
0.999999001305
0.999998384465
0.999998433872
0.999998769703
0.999999003967
0.999999047922
0.999998897087
0.999998731832
0.999998599931
0.999998534724
0.99999851362
0.999998497531
0.999998486444
0.999998488309
0.999998499202
0.99999851238
0.99999852626
0.999998535485
0.999998541469
0.999998553564
0.999998572371
0.999998604603
0.999998632003
0.999998640603
0.999998641241
0.999998645476
0.999998655462
0.99999864553
0.999998604872
0.999998580829
0.999998582487
0.999998517818
0.999998517202
0.999998546004
0.999998603219
0.999998739753
0.999998773553
0.999998822044
0.999998838303
0.999998865197
0.999999095604
0.999998354073
0.999998400007
0.999998735817
0.999998971294
0.999999018243
0.999998865104
0.999998698371
0.999998564674
0.999998498385
0.999998475219
0.99999845668
0.999998445883
0.999998448963
0.999998459408
0.999998475351
0.99999849294
0.999998506619
0.999998517557
0.999998538254
0.999998566131
0.999998603652
0.999998621932
0.999998626836
0.999998633651
0.999998649701
0.99999864771
0.999998611718
0.999998590837
0.999998578331
0.999998518017
0.999998502575
0.999998508648
0.999998519983
0.999998610717
0.999998785657
0.999998819216
0.999998856335
0.999998871149
0.999998870092
0.999999155105
0.999998325126
0.999998365814
0.99999870059
0.999998936997
0.99999898587
0.999998829779
0.99999866072
0.99999852529
0.99999845989
0.999998432031
0.999998412353
0.999998401934
0.999998404037
0.999998415943
0.999998436671
0.99999845801
0.999998476592
0.999998496351
0.999998521746
0.999998560084
0.999998597876
0.999998612494
0.999998621149
0.999998650312
0.999998655309
0.999998614325
0.999998599799
0.999998597508
0.999998784805
0.999998501273
0.999998482958
0.999998497102
0.999998511492
0.999998587068
0.99999871033
0.999998861331
0.999998905938
0.99999889322
0.999998905518
0.99999919266
0.999998294473
0.99999832809
0.999998661401
0.999998897884
0.999998945603
0.999998786303
0.999998613902
0.999998476139
0.999998408895
0.999998377723
0.999998358172
0.999998347488
0.999998348538
0.999998363239
0.999998387908
0.99999841196
0.999998434599
0.999998464774
0.999998495743
0.999998532633
0.999998576304
0.999998617423
0.999998643141
0.999998647423
0.999998621168
0.999998612798
0.999998609757
0.999998703692
0.999998479186
0.99999849787
0.999998463601
0.999998395247
0.999998371633
0.999998445861
0.99999860639
0.999998808757
0.999998908574
0.999998952361
0.999999004023
0.99999924306
0.999998247854
0.999998285098
0.99999861558
0.99999885075
0.999998893363
0.999998730174
0.999998552794
0.999998411538
0.999998338205
0.999998303284
0.999998284506
0.999998274471
0.999998276276
0.999998293379
0.999998317127
0.999998344059
0.999998375689
0.999998410966
0.999998444844
0.999998483843
0.999998545119
0.999998609875
0.999998630409
0.999998600275
0.999998606069
0.999998715634
0.999998540715
0.999998440635
0.99999844897
0.999998500007
0.999998307635
0.999998188526
0.999998213339
0.999998284414
0.999998521113
0.999998747886
0.999998884284
0.999999004824
0.999999088813
0.999999306889
0.99999819321
0.9999982374
0.999998562965
0.999998795363
0.999998830579
0.999998662132
0.999998477228
0.999998328584
0.999998252036
0.999998213669
0.999998193548
0.999998183254
0.99999818485
0.999998201952
0.999998227645
0.999998262239
0.999998304632
0.999998341501
0.999998384141
0.999998452578
0.999998522959
0.999998556358
0.999998568331
0.999998604055
0.999998661669
0.999998576172
0.999998478454
0.999998426914
0.999998435207
0.99999826744
0.999998162663
0.999998155441
0.999998173136
0.999998206111
0.999998466182
0.999998703529
0.999998894931
0.999999041093
0.999999149341
0.999999369971
0.99999816561
0.999998185618
0.999998508875
0.999998737402
0.999998765415
0.99999859086
0.999998398161
0.999998239398
0.999998159766
0.999998120279
0.999998097826
0.999998086478
0.999998088946
0.999998109034
0.999998145094
0.999998188835
0.999998233948
0.999998287976
0.999998359672
0.999998432436
0.999998484072
0.999998527175
0.999998550184
0.999998588677
0.99999862747
0.99999853467
0.999998459535
0.99999840181
0.999998291263
0.999998161332
0.999998133408
0.999998132572
0.999998145641
0.999998286995
0.999998466347
0.999998650391
0.999998923245
0.999999099785
0.999999219746
0.999999426376
0.99999814394
0.999998154412
0.99999845652
0.999998685838
0.999998709365
0.999998528753
0.999998331994
0.999998166392
0.99999807348
0.999998038079
0.999998016932
0.999998005207
0.999998012714
0.999998039437
0.999998081818
0.999998131746
0.999998189435
0.9999982695
0.999998351396
0.99999840428
0.99999846667
0.999998535258
0.999998562923
0.99999859193
0.999998617639
0.999998552692
0.99999844579
0.999998327895
0.99999817955
0.999998133862
0.999998113474
0.999998115075
0.999998128694
0.999998358784
0.999998474268
0.999998674056
0.999998979635
0.999999176162
0.999999297116
0.999999491001
0.999998126296
0.999998123611
0.999998418405
0.999998643709
0.999998663961
0.999998479391
0.99999828115
0.999998114397
0.999998015475
0.999997977207
0.999997953386
0.999997941369
0.999997953449
0.999997986213
0.999998031467
0.999998090556
0.999998161294
0.999998241065
0.999998332902
0.999998420804
0.999998487454
0.999998537729
0.999998593372
0.999998674539
0.999998660292
0.999998529745
0.999998445596
0.999998306396
0.999998164551
0.999998123452
0.999998095819
0.999998098075
0.999998172653
0.999998334403
0.999998490577
0.999998801822
0.999999062421
0.999999247593
0.999999377565
0.999999553304
0.999998106916
0.999998090294
0.999998381302
0.999998596362
0.999998604741
0.999998422029
0.999998224358
0.999998062751
0.999997959896
0.999997905756
0.999997881245
0.999997872675
0.999997884314
0.999997919713
0.99999797254
0.999998040236
0.99999812019
0.999998201446
0.999998294341
0.99999840606
0.999998501901
0.99999855134
0.999998609185
0.999998707933
0.999998681006
0.999998513641
0.999998444804
0.999998364893
0.999998157988
0.999998099615
0.999998073789
0.999998077387
0.999998165723
0.999998315714
0.999998590929
0.999998915486
0.999999132047
0.999999310429
0.999999435277
0.999999582828
0.999998072256
0.999998049553
0.9999983177
0.999998513458
0.999998492338
0.999998313933
0.999998116613
0.999997954551
0.999997845965
0.99999778658
0.999997758041
0.999997750032
0.99999776342
0.999997801358
0.999997861791
0.999997937791
0.999998025031
0.999998118683
0.999998217717
0.999998323878
0.999998429834
0.999998522879
0.999998598537
0.999998643228
0.999998623474
0.999998528977
0.999998426076
0.999998351365
0.999998273876
0.999998153105
0.999998070414
0.999998062238
0.999998165306
0.999998440093
0.99999873874
0.999998978297
0.999999180133
0.999999343323
0.999999427611
0.999999571421
0.999998023841
0.999997978214
0.999998212504
0.999998370048
0.999998311546
0.999998126334
0.999997925399
0.999997760973
0.999997649901
0.999997586997
0.999997554652
0.999997545523
0.999997561399
0.999997604856
0.999997671299
0.999997753978
0.999997851619
0.999997958945
0.99999806924
0.999998183323
0.999998307292
0.999998431422
0.999998525586
0.999998548998
0.999998499244
0.999998449109
0.99999842299
0.999998356707
0.999998245093
0.999998162382
0.999998127888
0.999998174797
0.999998328616
0.999998556714
0.999998804067
0.999999019201
0.999999202257
0.999999320368
0.999999389837
0.999999536578
0.999997940083
0.999997865647
0.999998049091
0.999998162135
0.999998064663
0.999997861281
0.999997649538
0.999997478749
0.999997362109
0.99999729237
0.999997256945
0.999997247233
0.999997263395
0.999997311878
0.999997388695
0.9999974849
0.999997597081
0.999997715587
0.999997839516
0.999997981682
0.999998138722
0.999998276565
0.999998368859
0.999998424762
0.99999843643
0.999998388486
0.999998327163
0.999998272483
0.999998213617
0.999998164174
0.999998144833
0.99999823445
0.999998412677
0.99999862481
0.999998841343
0.999999044665
0.999999185311
0.99999928994
0.999999341521
0.999999485056
0.999997888288
0.999997818248
0.999997878299
0.999997957061
0.999997820514
0.999997602063
0.999997382687
0.999997202375
0.999997058392
0.999996972328
0.999996976287
0.999997004035
0.999997050184
0.999997109218
0.999997187706
0.999997293526
0.999997397337
0.999997480752
0.999997633486
0.999997827945
0.99999804007
0.999998186856
0.999998281278
0.999998366254
0.999998406404
0.999998357009
0.999998287858
0.999998243915
0.999998228343
0.999998206624
0.999998202681
0.999998279229
0.999998452181
0.999998655516
0.999998863076
0.999999038013
0.999999164905
0.999999247362
0.999999263065
0.999999431868
0.999998316874
0.99999826618
0.999998319705
0.999998319168
0.999998199584
0.999998028414
0.999997864248
0.999997736765
0.999997650157
0.999997597648
0.999997573645
0.999997571856
0.99999759228
0.9999976411
0.999997711628
0.999997798037
0.99999790547
0.99999802655
0.999998152654
0.999998287871
0.999998437159
0.999998567396
0.999998641081
0.999998680565
0.999998710429
0.999998706735
0.999998665902
0.999998619452
0.999998591608
0.999998593877
0.999998622282
0.999998694143
0.999998820081
0.999998970605
0.99999912518
0.999999243801
0.99999933769
0.999999389183
0.999999403983
0.999999602499
0.999998594389
0.999998593978
0.999998833904
0.999998975913
0.999998936431
0.999998768551
0.999998591465
0.999998456984
0.999998368223
0.99999830594
0.999998250162
0.999998195498
0.999998164765
0.999998153226
0.999998141918
0.999998134393
0.999998125113
0.999998113006
0.99999809971
0.999998083617
0.999998068631
0.9999980566
0.999998046627
0.999998040384
0.999998037085
0.999998035831
0.999998036035
0.999998035699
0.99999803421
0.999998032926
0.999998036077
0.999998048893
0.99999806212
0.999998114892
0.999998190178
0.999998249758
0.99999828198
0.999998287823
0.999998312389
0.999998721083
0.999998601439
0.999998783337
0.9999990618
0.999999191559
0.999999129407
0.99999896326
0.999998795928
0.999998674429
0.999998594874
0.999998535322
0.999998483382
0.99999843928
0.999998406093
0.999998385112
0.999998373923
0.999998364437
0.999998352924
0.999998338136
0.999998320796
0.999998303266
0.999998286464
0.999998272728
0.999998263713
0.999998258465
0.999998256264
0.99999825599
0.999998256085
0.999998254626
0.999998251191
0.999998247283
0.99999824747
0.999998261943
0.999998305691
0.999998367561
0.999998430571
0.999998474963
0.999998486086
0.999998455145
0.999998406465
0.999998766484
0.999998863847
0.999999086659
0.999999379209
0.999999517521
0.999999468492
0.999999320928
0.999999173021
0.999999068024
0.999999000786
0.99999895119
0.999998908109
0.999998872115
0.999998846933
0.999998832444
0.999998824135
0.999998816545
0.99999880633
0.999998793088
0.999998778323
0.999998764002
0.99999875179
0.999998742845
0.999998737607
0.999998735708
0.999998736255
0.999998738019
0.999998739207
0.999998738196
0.9999987338
0.999998727183
0.999998723129
0.999998730798
0.99999875918
0.999998807113
0.999998855824
0.999998875881
0.999998843273
0.999998753909
0.999998636254
0.999998884076
0.999999044994
0.999999259821
0.999999559765
0.999999712704
0.999999681174
0.999999549504
0.999999414321
0.999999319401
0.999999260862
0.999999219306
0.999999183716
0.999999154362
0.999999134605
0.999999124136
0.999999118594
0.999999112948
0.999999104351
0.999999092823
0.999999080138
0.999999068387
0.999999059149
0.99999905324
0.999999050771
0.999999051054
0.999999053258
0.999999055862
0.999999057024
0.999999054825
0.999999047653
0.999999036192
0.999999026044
0.999999026244
0.99999904764
0.99999908828
0.999999126018
0.999999125529
0.999999056538
0.999998917017
0.999998754628
0.999998948149
0.999999069274
0.999999264509
0.999999573052
0.999999740574
0.999999722523
0.999999598283
0.99999946827
0.999999377709
0.999999323675
0.999999286964
0.99999925626
0.99999923145
0.99999921564
0.999999208408
0.999999205438
0.999999201886
0.999999195102
0.999999185316
0.999999174479
0.999999164787
0.999999157735
0.999999153975
0.999999153264
0.999999155031
0.999999158137
0.999999161024
0.999999161715
0.999999158026
0.999999147763
0.999999131187
0.999999114201
0.999999107182
0.999999122435
0.999999158637
0.999999191429
0.999999177805
0.999999084043
0.999998912837
0.999998724109
0.99999891039
0.999998985483
0.99999918443
0.999999506028
0.99999968439
0.999999672384
0.999999549961
0.999999419939
0.999999329668
0.99999927694
0.999999242235
0.999999213943
0.999999191721
0.99999917832
0.999999173123
0.999999171785
0.999999169468
0.999999163683
0.999999154788
0.999999144807
0.999999135941
0.999999129724
0.999999126692
0.999999126442
0.999999128338
0.99999913111
0.99999913308
0.999999132203
0.999999125624
0.999999110688
0.999999087427
0.999999061952
0.999999046863
0.999999055461
0.999999088592
0.999999120087
0.999999103191
0.999999000203
0.999998812763
0.999998604387
0.999998815608
0.999998901886
0.999999116493
0.999999449076
0.999999633125
0.999999622222
0.999999498342
0.999999366468
0.999999275055
0.999999222142
0.999999188142
0.999999160918
0.999999139886
0.999999126437
0.99999912254
0.999999123511
0.999999121836
0.999999116292
0.99999910744
0.999999096824
0.999999086566
0.999999078858
0.999999075601
0.999999075174
0.999999076788
0.999999079037
0.999999081486
0.999999080993
0.999999072671
0.999999054144
0.999999025808
0.999998993342
0.999998971197
0.999998973377
0.999999002679
0.999999032818
0.999999016
0.999998911063
0.999998716725
0.999998497497
0.99999873185
0.999998865245
0.999999094218
0.999999432071
0.999999617619
0.999999605595
0.999999479454
0.999999345719
0.999999253149
0.999999198646
0.999999164766
0.99999913808
0.999999114023
0.999999100299
0.999999098266
0.999999101246
0.999999101784
0.999999096309
0.999999085869
0.999999073702
0.999999062576
0.999999054749
0.999999051435
0.999999051022
0.999999052535
0.999999054571
0.999999057215
0.999999056859
0.999999049671
0.999999030294
0.999998998307
0.999998959151
0.999998927501
0.999998922541
0.999998949595
0.999998980227
0.999998962188
0.999998856214
0.999998659283
0.999998431613
0.999998683939
0.999998872216
0.999999100687
0.99999943909
0.999999623632
0.999999609421
0.999999480691
0.999999345102
0.999999251634
0.999999197198
0.99999916371
0.999999138086
0.999999115374
0.999999101972
0.999999101207
0.999999106139
0.999999107422
0.999999101728
0.999999090486
0.999999077213
0.999999065657
0.999999057137
0.999999053909
0.999999053335
0.999999054838
0.999999056662
0.99999905809
0.999999058321
0.999999051269
0.999999030861
0.999998996583
0.99999895378
0.999998916735
0.999998904639
0.99999892611
0.999998955656
0.999998934729
0.999998827031