/*--------------------------------*- C++ -*----------------------------------*\
| =========                 |                                                 |
| \\      /  F ield         | foam-extend: Open Source CFD                    |
|  \\    /   O peration     | Version:     4.1                                |
|   \\  /    A nd           | Web:         http://www.foam-extend.org         |
|    \\/     M anipulation  |                                                 |
\*---------------------------------------------------------------------------*/
FoamFile
{
    version     2.0;
    format      ascii;
    class       volScalarField;
    location    "0.5";
    object      epsilon;
}
// * * * * * * * * * * * * * * * * * * * * * * * * * * * * * * * * * * * * * //

dimensions      [0 2 -3 0 0 0 0];

internalField   nonuniform List<scalar> 
96000
(
0.0246141363917
0.024983319544
0.0256539239331
0.0259896570729
0.0261234158757
0.0261726755157
0.0261903508334
0.0261970669934
0.0262001985818
0.0262022946181
0.0262041687572
0.0262060791904
0.0262080968014
0.0262102415768
0.0262125120266
0.0262148990237
0.0262175966677
0.0262206177091
0.0262239404389
0.0262275331579
0.0262313249364
0.0262353393996
0.0262395092849
0.0262437851683
0.0262481559094
0.026252542445
0.026256927865
0.0262612651839
0.026265485674
0.0262695319612
0.0262732209159
0.0262761518337
0.0262771907323
0.0262731280382
0.0262550445067
0.0261997230678
0.0260495249418
0.025683682141
0.0249770820511
0.0246154414476
0.0249843141016
0.0330267916998
0.0389996974504
0.0423157465386
0.0438500525152
0.0445081161833
0.0447742686513
0.0448789894143
0.0449215319308
0.0449419248292
0.0449550389939
0.0449662355805
0.0449773035234
0.0449888382605
0.045001012205
0.04501386821
0.0450273907128
0.0450415427299
0.0450562649948
0.0450714829114
0.0450870758887
0.0451030607709
0.0451193385025
0.0451357245144
0.0451521570782
0.0451685127771
0.0451846659215
0.0452004339995
0.0452154654794
0.0452289281633
0.0452384883527
0.045237687062
0.0452089257046
0.0451072364812
0.0448236582106
0.0441158811423
0.0424867103742
0.0390430047767
0.0330159108645
0.0249871107445
0.025652057577
0.0389890897185
0.0497768661897
0.0560799622274
0.0592950364269
0.0608191996062
0.0614948391922
0.0617784766572
0.0618937086429
0.0619415882573
0.0619641135078
0.0619778250549
0.0619888485614
0.061999401915
0.0620102550723
0.0620216749128
0.0620337417609
0.0620464661994
0.0620598198385
0.0620737522676
0.0620881859649
0.0621030953824
0.0621183807934
0.0621339057323
0.0621495627317
0.0621651935932
0.0621805662701
0.0621952264075
0.0622080943198
0.0622163614174
0.0622125496233
0.0621773992231
0.0620632632215
0.0617600618703
0.0610301463886
0.0594049177502
0.0560364499342
0.0495684596579
0.0387830129981
0.025628076394
0.0259861223622
0.0422957869478
0.0560679836535
0.0645049865805
0.069083794683
0.0713977463535
0.0724890980737
0.0729724857402
0.0731754019967
0.0732579518578
0.0732918472022
0.0733072234137
0.0733159678251
0.0733226098821
0.0733288194359
0.0733352181508
0.0733420397343
0.0733493745774
0.0733572493314
0.0733656604033
0.0733745818831
0.0733839925106
0.0733938305337
0.0734040024979
0.0734144007963
0.0734248427873
0.0734349754758
0.0734439750777
0.0734497385234
0.0734468021958
0.0734211771379
0.0733386766434
0.0731199638387
0.0725940338462
0.0714189013996
0.0689723019287
0.0642166341665
0.0556224186282
0.0419348642884
0.0259451306663
0.02611922357
0.0438240580607
0.0592739065871
0.0690734090615
0.0746139938894
0.0775351332481
0.0789721327448
0.0796339411092
0.0799204849999
0.0800382036123
0.0800844764087
0.0801021689444
0.0801089488352
0.0801118030424
0.0801134030696
0.0801147765787
0.0801163324609
0.0801182497428
0.0801206133657
0.0801234664278
0.0801268254866
0.080130694107
0.0801350448595
0.0801398190434
0.0801449153431
0.0801501216771
0.080154947181
0.0801581548579
0.0801565360761
0.0801418862193
0.0800938600405
0.0799646340441
0.0796481174856
0.0789265337451
0.0773867618991
0.0743174445401
0.0685967323808
0.0586643227755
0.0433695132511
0.0260698833987
0.026168267165
0.0444790442833
0.060792472348
0.0713803449138
0.0775276120872
0.0808598259678
0.0825457903428
0.0833435840646
0.0836973908375
0.0838450669203
0.0839028241452
0.0839234919153
0.0839295166606
0.0839300148368
0.0839285600658
0.0839265553414
0.0839245718538
0.0839228680104
0.0839215773101
0.0839207784727
0.083920518271
0.0839208214653
0.083921684204
0.0839230662639
0.0839248659196
0.0839268333543
0.0839283398306
0.0839277608281
0.0839208974277
0.0838971947514
0.0838311112429
0.0836642698992
0.0832711723522
0.0824027427633
0.0806031120146
0.0771159683261
0.0707918755103
0.0600927580326
0.043978440343
0.0261154640214
0.0261859065218
0.0447438446284
0.0614650822754
0.0724674999351
0.0789598178829
0.0825407909463
0.0843855147493
0.0852742024801
0.0856750518847
0.08584476307
0.0859116474274
0.0859352951383
0.0859415464912
0.0859410922298
0.0859381966365
0.0859345584157
0.0859308783776
0.0859274773989
0.0859245248986
0.085922123781
0.0859203392337
0.0859192088738
0.0859187396683
0.0859188971055
0.0859195703725
0.0859204690441
0.0859208433077
0.0859187530429
0.085909230335
0.0858799693983
0.0858017171807
0.0856089092517
0.0851635513231
0.0841978447769
0.0822329333924
0.0784930753635
0.071825864682
0.0607240711107
0.0442227305665
0.0261318778962
0.0261926538192
0.0448481495913
0.0617473484982
0.0729487391839
0.0796190032865
0.0833357404559
0.0852712907167
0.0862142588499
0.0866444499734
0.0868286695993
0.0869021415535
0.0869285125857
0.0869357427109
0.0869355427953
0.0869326400876
0.0869289378409
0.0869252284938
0.0869218767613
0.0869190755782
0.0869169415138
0.0869155479336
0.0869149358398
0.0869151121694
0.0869160368436
0.0869175821016
0.0869194163824
0.0869206906194
0.0869192296707
0.0869095249017
0.0868780919522
0.0867932773783
0.0865850686373
0.0861081219383
0.0850843810334
0.083023709006
0.0791433742316
0.0722953081209
0.0609956466981
0.0443197207031
0.0261382746101
0.0261958408105
0.0448906782465
0.0618620680174
0.0731506776483
0.0799042507587
0.0836880845317
0.0856706130698
0.0866429107057
0.0870897394468
0.0872827607949
0.0873607314738
0.0873894743841
0.08739813182
0.0873990061373
0.0873971036222
0.0873944561902
0.0873919161812
0.0873898773465
0.0873885471342
0.087388048571
0.0873884561045
0.0873898070555
0.0873921003582
0.0873952824391
0.0873992027956
0.0874034893418
0.0874072127981
0.0874080291083
0.0874000677374
0.0873690941099
0.0872819879987
0.0870661335551
0.0865720834287
0.0855164403325
0.0834038081659
0.0794494838212
0.0725099656106
0.0611156121482
0.044360357565
0.026141428008
0.0261980047329
0.0449112533649
0.0619098853634
0.0732329004335
0.0800214460891
0.0838351346778
0.085839662187
0.0868264702189
0.0872821110579
0.0874803058217
0.0875614121361
0.0875922965909
0.0876026941202
0.0876052189015
0.0876050325232
0.0876042434623
0.0876037421285
0.0876039413965
0.0876050575036
0.0876072153711
0.0876104858765
0.0876148976422
0.0876204358906
0.0876270275571
0.0876344946079
0.0876424239093
0.0876498178715
0.087654206584
0.0876494725934
0.0876208992759
0.0875344634006
0.0873160124743
0.0868137715482
0.08574149899
0.0836012367596
0.0796078544038
0.0726208276026
0.0611784150582
0.0443818894385
0.0261438846827
0.0261999572969
0.0449246571894
0.0619325876006
0.073266816245
0.0800676172225
0.0838927355175
0.0859063852583
0.0868998080236
0.0873599819636
0.0875613370112
0.0876448361845
0.0876777802391
0.0876901679726
0.0876947651714
0.0876968164143
0.0876984761264
0.0877006602726
0.0877037955241
0.0877081039591
0.0877137099868
0.087720678141
0.0877290249534
0.0877387177252
0.0877496591505
0.087761639212
0.0877742015225
0.0877862849546
0.087795316072
0.0877949925591
0.0877702592529
0.0876864916839
0.0874685477256
0.0869631785397
0.0858823834053
0.083727877858
0.0797133489411
0.0726977849958
0.0612269223693
0.0444014276843
0.0261465582885
0.0262019605287
0.0449362454624
0.061946655708
0.0732824480793
0.0800854833164
0.0839135547975
0.0859302086942
0.0869264123338
0.0873890254845
0.0875925823303
0.0876781781087
0.0877132474359
0.0877278864409
0.0877349299536
0.0877396680952
0.0877442857386
0.087749718531
0.0877564048383
0.0877645715742
0.0877743415312
0.0877857711817
0.0877988623799
0.087813560943
0.0878297409037
0.087847155441
0.0878653007848
0.0878830514928
0.0878977386529
0.0879029250609
0.0878833024033
0.0878048037794
0.0875930419725
0.0870925321421
0.0860125490609
0.0838509448921
0.0798224497546
0.0727836120029
0.0612875652882
0.0444294922427
0.0261497461991
0.0262040942402
0.0449478175138
0.0619582133834
0.0732916568322
0.0800926675338
0.0839199863395
0.085936920068
0.0869341959117
0.087398345411
0.0876037491643
0.0876914219606
0.0877287940793
0.0877459810855
0.0877558484144
0.0877637148782
0.0877717896174
0.0877810263931
0.0877918753618
0.0878045685659
0.0878192269653
0.0878358978548
0.0878545662047
0.0878751529427
0.0878974988628
0.0879213149716
0.08794604513
0.0879705196625
0.0879920248268
0.0880068903844
0.087999762467
0.0879340359468
0.0877331378596
0.0872394756256
0.0861618058827
0.0839949764784
0.079953689073
0.0728915458069
0.0613666266289
0.0444676947745
0.0261535515175
0.026206374958
0.0449600069926
0.0619695079426
0.0732989933821
0.0800961718675
0.083921160135
0.0859372268708
0.0869348933597
0.0874002774939
0.0876074969156
0.0876973924841
0.0877373295859
0.0877574094718
0.0877705125586
0.0877819806178
0.0877940462199
0.0878076823566
0.0878233525373
0.0878412951383
0.0878616296641
0.0878843934883
0.0879095526217
0.0879369995709
0.0879665374179
0.0879978419317
0.0880303680932
0.0880658225097
0.0881028811935
0.0881337717915
0.0881417238874
0.0880897749832
0.0879005186714
0.0874148413317
0.086340238041
0.0841688334819
0.0801142202492
0.0730267348546
0.0614675332387
0.0445176740039
0.026158025449
0.0262088053073
0.0449730160105
0.0619813468948
0.0733061655234
0.0800987058032
0.0839206905975
0.0859354400336
0.0869332872364
0.0873998943598
0.0876090666881
0.0877014290527
0.0877442563338
0.0877676224247
0.0877844182887
0.0878000087617
0.0878166521026
0.08783534341
0.0878565622413
0.0878805553083
0.0879074415911
0.0879372481181
0.0879699199832
0.0880053189236
0.0880432518733
0.0880847872482
0.0881335886226
0.0881873076215
0.0882420312861
0.0882899258646
0.0883140559088
0.0882770565384
0.0881003337196
0.087623693624
0.0865526646913
0.0843767080972
0.0803075455944
0.073191858713
0.0615923344818
0.0445805493786
0.0261631818564
0.0262114481719
0.0449869048485
0.0619940363352
0.0733138384651
0.0801013438259
0.0839200327197
0.0859333177187
0.0869313501414
0.0873993093915
0.0876106627717
0.0877057986035
0.0877518909516
0.087778982817
0.0877999767961
0.0878202640862
0.0878421328304
0.0878666044791
0.0878941783728
0.0879251123548
0.0879595264141
0.0879974374392
0.0880387738149
0.0880834656191
0.0881354796486
0.0881966326368
0.0882650623436
0.0883380019841
0.0884115182686
0.0884776819721
0.0885193280039
0.0884984613207
0.088335481282
0.0878688857837
0.0868021706596
0.0846209804584
0.080536030308
0.0733889677354
0.0617428322691
0.0446573344632
0.0261690310761
0.0262145262615
0.0450016912312
0.062007694296
0.0733222888333
0.0801045423145
0.0839198113918
0.0859316227515
0.086929947106
0.0873994603836
0.0876132763346
0.0877115357759
0.087761308609
0.0877926080414
0.0878183523634
0.0878439644216
0.0878717679251
0.087902816168
0.0879376330713
0.0879764913301
0.0880195148035
0.0880667322185
0.0881185825659
0.0881817501964
0.0882549393484
0.0883367108845
0.0884254649589
0.0885188819648
0.0886125913201
0.0886985008864
0.0887591535529
0.0887559223399
0.0886080083449
0.0881522349213
0.0870900820329
0.0849036335249
0.0808011401417
0.0736195144408
0.0619206149373
0.0447491023882
0.0261756029752
0.0262180226348
0.0450173606816
0.0620223638642
0.0733316454431
0.0801085241483
0.0839203358083
0.0859307356289
0.0869295134561
0.0874008249909
0.0876174200338
0.0877191857858
0.0877730883034
0.0878091147508
0.0878402050657
0.0878718205764
0.0879063276205
0.0879448180368
0.0879878463513
0.0880357057715
0.0880885672246
0.0881483858472
0.0882209897955
0.088305611054
0.0884008817101
0.088504670382
0.0886153655088
0.088730699199
0.0888461873909
0.0889534209576
0.0890346013946
0.0890505258214
0.0889191043425
0.0884751760899
0.087417811494
0.0852254225977
0.0811036390412
0.0738843646387
0.0621269529732
0.0448569574937
0.0261832720102
0.0262219150383
0.0450338768154
0.062038045644
0.0733419686892
0.0801134131383
0.0839217851798
0.085930880222
0.0869303074567
0.0874036892059
0.0876234045407
0.0877290842324
0.087787593259
0.0878288983524
0.0878659685708
0.0879043119571
0.0879463459154
0.0879932089308
0.0880454944118
0.0881035729026
0.0881704678143
0.0882519251113
0.0883475754373
0.0884549246688
0.0885732987583
0.0887005772175
0.0888349673549
0.0889739789091
0.0891129244782
0.089243401171
0.0893468413608
0.0893832566612
0.0892692793545
0.0888377595728
0.0877850671972
0.0855858229854
0.0814429332605
0.0741830713251
0.0623620335097
0.044981866032
0.0261924924464
0.0262261763138
0.0450511766329
0.0620547045866
0.0733532766954
0.0801192816324
0.0839242755031
0.0859322057851
0.0869325027144
0.087408245882
0.0876314400649
0.087741459566
0.0878050730414
0.0878522340174
0.0878959495619
0.0879417840258
0.0879922157358
0.088048440357
0.0881111525533
0.0881840269507
0.0882735165993
0.0883784723473
0.088497508841
0.0886292152281
0.0887722023354
0.0889246303982
0.0890845745129
0.0892490685099
0.0894134301538
0.0895685608802
0.0896955636075
0.0897534334366
0.0896576169312
0.0892386552887
0.0881902530573
0.0859830391715
0.0818170215046
0.0745136949238
0.062624229618
0.0451242013075
0.0262038192197
0.0262307358901
0.0450691230909
0.0620722714291
0.0733655609462
0.0801261700096
0.0839278837019
0.0859348150865
0.0869362193277
0.0874146275475
0.0876416696674
0.0877564660512
0.0878256955703
0.0878793072525
0.0879303564133
0.0879844747145
0.0880442134589
0.0881108853074
0.0881884697954
0.0882842694606
0.0883972112489
0.0885265254255
0.0886703932393
0.0888279429583
0.0889973856462
0.0891768459557
0.0893640584953
0.0895557602528
0.0897468598899
0.0899277838882
0.0900791108008
0.0901590400847
0.0900816994688
0.0896753905716
0.0886308943495
0.0864146464275
0.0822235087379
0.07487364689
0.0629084653721
0.0452842485585
0.0262182261718
0.026235586384
0.0450877198363
0.0620907176508
0.0733788075468
0.0801340943995
0.0839326525375
0.0859387703472
0.0869415307613
0.0874229137053
0.0876541763692
0.0877741900671
0.0878495521609
0.0879102172921
0.0879693005231
0.0880325136652
0.0881025303465
0.0881834680727
0.0882836909231
0.0884030308148
0.0885407105596
0.0886952679605
0.0888657029319
0.0890506606077
0.0892483680937
0.0894565651549
0.0896725464191
0.089892559759
0.0901111200379
0.0903183947383
0.0904945917838
0.0905971895848
0.0905389728061
0.0901458142714
0.089105282993
0.0868792552676
0.0826611168964
0.0752613907258
0.0632126823798
0.0454592270613
0.0262368429014
0.0262407219296
0.0451069282247
0.0621099701311
0.0733929625858
0.080143031775
0.0839385844765
0.0859440886849
0.0869484594731
0.0874331258455
0.0876689772038
0.0877946429758
0.0878766488697
0.087944966518
0.0880127836091
0.0880859235724
0.0881689422642
0.0882716067016
0.0883955756898
0.0885394394287
0.0887024987105
0.0888839329638
0.0890824987828
0.0892965478994
0.0895240350566
0.0897621689921
0.0900076543359
0.0902564354412
0.0905029205567
0.0907372502554
0.0909393830279
0.0910660217716
0.0910283661752
0.0906495316565
0.0896134920407
0.0873771497185
0.0831300594665
0.0756765496675
0.0635361181908
0.0456471837957
0.0262597392823
0.0262460440936
0.0451265455232
0.0621298637245
0.0734079096187
0.0801529063688
0.0839456264009
0.085950726385
0.0869569596472
0.0874452087704
0.0876860030422
0.0878177393591
0.0879068829216
0.0879834348096
0.0880606731801
0.0881449069761
0.0882489278541
0.0883748906992
0.0885225585498
0.0886916451097
0.0888815785766
0.0890913040029
0.0893194192787
0.0895639592317
0.0898221235641
0.0900906058748
0.0903658134987
0.0906438293793
0.0909192997491
0.0911823759771
0.0914125664125
0.0915654768786
0.0915504213483
0.0911874430124
0.090156583659
0.0879093779252
0.0836311807821
0.076117794025
0.0638793642537
0.0458462819043
0.0262852131068
0.0262515065276
0.0451464157869
0.0621502360644
0.073423501089
0.0801635830435
0.0839536454999
0.0859585424919
0.0869668733609
0.0874589817223
0.0877050462134
0.087843241758
0.0879399847757
0.0880253197497
0.0881127204211
0.0882156093836
0.0883412888454
0.0884905181444
0.0886630513229
0.0888585099559
0.0890764450889
0.0893156731722
0.0895744494125
0.0898500352651
0.0901390168667
0.0904378697544
0.090743384211
0.0910521060423
0.0913587881575
0.0916532400641
0.0919142025709
0.0920959481897
0.0921056967187
0.0917601930636
0.0907352806801
0.0884768138671
0.0841656101137
0.0765867295702
0.0642438754211
0.0460559300665
0.026312670995
0.0262570911482
0.045166425861
0.0621708980005
0.0734395103539
0.0801748014629
0.0839623404863
0.0859671913743
0.0869778089836
0.0874740070236
0.0877256223311
0.087870617396
0.0879753708356
0.0880700193551
0.0881719241351
0.0882962335745
0.0884444477222
0.0886173876058
0.0888153195892
0.0890379652388
0.0892848577783
0.089554489882
0.0898442521498
0.0901507220736
0.0904703334081
0.0908001867187
0.0911377205258
0.0914796201971
0.0918203256407
0.0921490214619
0.0924435054448
0.0926565953225
0.0926932811548
0.0923668441496
0.0913487283428
0.0890788805855
0.0847334146815
0.0770851802826
0.0646337599899
0.0462812950087
0.0263424900695
0.0262627010018
0.0451863941245
0.0621915521705
0.0734555135849
0.0801859950921
0.0839710002838
0.0859758322517
0.0869888157504
0.0874892413415
0.0877466060973
0.0878986630702
0.0880117670836
0.0881171646162
0.0882387515627
0.0883842511758
0.088555077795
0.088752266252
0.0889763198193
0.0892270053655
0.0895034861956
0.089803589418
0.0901239143724
0.090460829521
0.0908115737497
0.0911740981272
0.0915460435462
0.0919238006622
0.092301251603
0.0926668279035
0.0929973001289
0.0932439663265
0.0933094867156
0.0930035431642
0.0919930017183
0.0897116588757
0.0853299880298
0.0776100417183
0.0650453514893
0.0465220822596
0.0263748787347
0.0262682795015
0.0452060949397
0.0622116697706
0.0734705927241
0.0801958164368
0.0839778732021
0.0859823798402
0.0869975533285
0.0875021532336
0.0877653156052
0.0879245669266
0.0880462899294
0.0881678180146
0.0883092102073
0.0884755398701
0.0886690983057
0.0888909800382
0.0891414493307
0.0894204438625
0.0897264346992
0.0900563378564
0.0904064337346
0.0907739184588
0.091157111539
0.0915543099079
0.0919629223088
0.0923788303382
0.0927952583759
0.093199835615
0.0935682570671
0.0938502724982
0.0939461511366
0.0936618914655
0.092659648456
0.0903668531184
0.085947522815
0.0781532911389
0.065470552569
0.0467701954952
0.0264088116848
0.0262737762277
0.0452251185933
0.0622300596084
0.0734824977437
0.0802008777705
0.0839785493383
0.0859816229292
0.086998235488
0.0875065574885
0.0877752781399
0.0879416421247
0.0880741467118
0.0882138717628
0.0883746950874
0.0885619121798
0.0887780482299
0.0890242603336
0.089301277896
0.0896082097886
0.0899427702668
0.0903012570908
0.0906805972879
0.0910792875988
0.0914962379368
0.0919296423063
0.0923764780377
0.0928320386459
0.0932888575898
0.0937337341195
0.0941413437367
0.0944598536744
0.0945872081876
0.0943257969038
0.0933331100493
0.0910301514964
0.0865734971924
0.0787059084638
0.0659038765939
0.0470226544747
0.026443824009
0.0262790765342
0.0452425439662
0.0622437491792
0.0734855299023
0.0801926756299
0.0839621159512
0.0859608415039
0.0869769065396
0.0874876880385
0.0877611804123
0.0879341975075
0.0880809695029
0.0882380273913
0.0884175692678
0.0886250762693
0.0888632144553
0.0891334687696
0.0894361555714
0.089769779412
0.0901311327676
0.0905167615637
0.0909249528373
0.0913551227895
0.0918062854821
0.092276330599
0.0927617422486
0.0932571994943
0.0937545654731
0.0942398719222
0.0946868001133
0.095042132413
0.0952017681514
0.094964880472
0.0939847145385
0.091676107323
0.0871878438986
0.0792533072927
0.0663368553379
0.0472774294902
0.0264796044611
0.0262839786719
0.0452559000697
0.0622449754935
0.0734652835133
0.0801503351588
0.0839024024123
0.0858900612757
0.0869010999516
0.0874115152951
0.0876879960161
0.0878680414812
0.0880293752533
0.0882023694779
0.088399344746
0.0886258753498
0.0888847917981
0.0891775742089
0.0895040159087
0.0898617508977
0.090247269923
0.0906581617778
0.0910939745876
0.09155451739
0.0920386734577
0.0925439692951
0.0930663938952
0.0936000570944
0.0941361921182
0.0946601600934
0.0951448937356
0.095536225225
0.0957286814566
0.0955191820258
0.0945578421411
0.0922541941148
0.0877492145569
0.0797655861314
0.066752702033
0.0475276699466
0.0265153501823
0.0262880693386
0.0452585014042
0.0622139964665
0.0733868725291
0.0800251613785
0.0837400153167
0.085702568005
0.0866995183706
0.0872039940784
0.0874799925133
0.0876672002241
0.087840670539
0.0880273716703
0.0882395524322
0.0884827406467
0.0887598640203
0.0890722155841
0.0894188113339
0.0897966026495
0.0902024516772
0.0906353387676
0.0910955558148
0.0915829864105
0.0920963159425
0.0926327312833
0.0931877724558
0.0937550225733
0.0943252114504
0.0948832774239
0.095401879961
0.0958267067694
0.0960522595857
0.0958751661297
0.0949447953034
0.0926671721323
0.0881774566886
0.0801847860333
0.0671173505925
0.0477611555784
0.0265498945429
0.0262900990817
0.0452323162014
0.0621022950234
0.0731697831136
0.0797096689841
0.0833478837733
0.085258624237
0.0862248914128
0.0867135444072
0.086983050507
0.0871754698726
0.08735671844
0.0875528166305
0.0877758860036
0.0880313988879
0.0883221330853
0.0886486500029
0.0890093493384
0.089400859847
0.0898209368462
0.090269704409
0.0907477588562
0.0912549226953
0.091789723157
0.0923490727497
0.0929281350345
0.0935200572304
0.0941152948859
0.0946987897336
0.0952437019798
0.0956969373208
0.0959552902179
0.0958185873771
0.0949399685705
0.0927266270493
0.0883112058169
0.0803873868038
0.0673539219607
0.0479467928503
0.0265806370469
0.02628676043
0.0451317006367
0.0617985409088
0.0726414611793
0.0789843636265
0.0824750743776
0.0842884143605
0.0851969456707
0.085654319104
0.0859100545958
0.0861003555415
0.0862834027348
0.0864833530857
0.0867113023398
0.0869726548766
0.0872696401328
0.0876023246662
0.0879683752361
0.0883645657919
0.0887896952987
0.0892445319469
0.0897297414808
0.0902450578281
0.0907889758755
0.0913582277498
0.0919476981276
0.0925502381428
0.0931563740282
0.0937516625769
0.0943106636814
0.0947836954001
0.095073422617
0.0949884779939
0.0941935025321
0.0921059520263
0.087863639418
0.0801468482356
0.0673154515367
0.0480241873368
0.0266022226605
0.0262688244428
0.0448465909189
0.0610633317047
0.0714580228143
0.0774342051429
0.0806637503024
0.082310991188
0.0831232447657
0.0835283254394
0.0837582117516
0.0839361515019
0.0841118449939
0.084306701491
0.0845304490973
0.0847873712791
0.0850796186392
0.0854065701371
0.0857654182199
0.0861532974382
0.0865698381947
0.0870159184048
0.087492135986
0.0879982384951
0.0885329319919
0.0890928897467
0.0896723422791
0.0902642617036
0.0908598357513
0.0914457390781
0.0920003817513
0.0924795424217
0.092796291783
0.0927759755019
0.092106688548
0.0902319042838
0.0863111670594
0.079023917259
0.0666892065477
0.0478421903026
0.0266005913641
0.0262127370518
0.0441335152301
0.0594269309381
0.068996429312
0.0743473915337
0.0771573226595
0.0785503445717
0.0792206673896
0.0795502602418
0.0797418509099
0.07989729742
0.0800564282625
0.0802361139277
0.0804443197296
0.0806848105512
0.0809591313625
0.081266300366
0.0816031495636
0.0819671621362
0.0823584665597
0.0827778136761
0.0832252357782
0.0836995613413
0.0842008984302
0.0847258421271
0.0852694598149
0.085824320594
0.0863829380068
0.0869343887213
0.0874609047662
0.0879268727943
0.0882613151535
0.0883161856968
0.0878192945922
0.086264412351
0.0828629666531
0.0763257002316
0.0649511494571
0.0471296481336
0.0265464755612
0.0260603040621
0.042494669545
0.0560413955832
0.0642197775826
0.0686032308832
0.070807687392
0.0718553678661
0.0723422707532
0.0725774533397
0.0727175139564
0.0728380785137
0.0729676818076
0.0731181197175
0.0732952036336
0.073502114595
0.0737403661025
0.0740090454163
0.0743046647284
0.0746244358851
0.0749672964201
0.0753334369573
0.0757223335854
0.0761342823727
0.0765709387263
0.0770299435848
0.0775051645054
0.0779890907229
0.0784767922013
0.0789600035658
0.0794258947346
0.0798497188587
0.0801808625505
0.0803078583985
0.0800176092203
0.0788882400258
0.0762318016311
0.0708596294105
0.0611217401474
0.0453068440529
0.0263728405354
0.0256909657391
0.0390397885031
0.0495560585754
0.0556056386982
0.0586491388322
0.0600846404188
0.0607265920741
0.0610117183644
0.0611475451023
0.0612350850054
0.0613166416763
0.0614089609549
0.061518920655
0.0616505079836
0.0618063347351
0.0619886505118
0.0621970565524
0.0624261441174
0.06267230346
0.0629361048745
0.063218995812
0.0635200546824
0.0638365455534
0.0641718625624
0.0645283433409
0.06489643858
0.0652705849555
0.0656475559509
0.0660227962569
0.0663887171511
0.0667311346274
0.0670220377689
0.0671936415285
0.0671095749478
0.0664721204813
0.0647645342407
0.0610163663689
0.0537903246313
0.0414726508262
0.0259610491693
0.024981462815
0.033009640942
0.0387657945205
0.0419123138665
0.0433463846133
0.0439582242217
0.0442073376878
0.0443105506707
0.0443584436332
0.0443913704684
0.0444250439265
0.0444649318531
0.0445137183688
0.0445733030658
0.0446449547871
0.0447308010727
0.0448343560758
0.0449573937006
0.0450948168727
0.0452440921827
0.0454049167277
0.0455767569648
0.045756460536
0.045945250842
0.046150697268
0.0463632729337
0.0465782188552
0.0467951796731
0.0470144908639
0.0472317629227
0.0474403667809
0.0476304350693
0.0477756332198
0.0478204114667
0.047623745557
0.0469268160828
0.0451584927115
0.0414043940719
0.0346621400874
0.0251922972147
0.0246155445964
0.0249863613734
0.0256262209826
0.0259426565984
0.0260672712012
0.02611303619
0.0261298058542
0.026136670574
0.0261403761962
0.0261433609216
0.0261463679668
0.0261496785943
0.0261534041344
0.026157647762
0.0261628691183
0.0261696101062
0.0261781548911
0.0261891308504
0.026203456596
0.0262215326128
0.0262427957202
0.0262663108098
0.0262915572228
0.0263182383766
0.02634688591
0.0263768779192
0.0264073126114
0.0264380769774
0.0264687466184
0.0264989079475
0.0265280703537
0.02655529192
0.0265784099937
0.0265927155398
0.0265854923417
0.0265283721249
0.0263555581299
0.0259477538637
0.0251812519639
0.0246649834523
0.0254322973843
0.0303598456111
0.0336036448718
0.0352223293711
0.0359459357988
0.0362490105114
0.0363711098143
0.036422195328
0.0364472410382
0.0364640496228
0.0364788301302
0.0364937978786
0.0365095906893
0.0365263961365
0.0365442157961
0.0365630040109
0.0365824645735
0.0366024943576
0.03662301735
0.0366439315854
0.0366649920642
0.0366864273587
0.036708048637
0.0367298887626
0.0367519199089
0.0367739910514
0.0367960733921
0.0368178139024
0.0368391227478
0.0368596164872
0.0368784020742
0.0368928291232
0.036895411084
0.0368661662957
0.0367540774478
0.0364411072077
0.0356725830426
0.033960771552
0.0305659498639
0.0254467645461
0.0303445729057
0.0328711293856
0.0367087242181
0.0387783594075
0.0397397426382
0.0401522345428
0.0403193671053
0.0403851346656
0.0404117491432
0.0404242944862
0.0404322151981
0.0404389097419
0.0404455302906
0.0404524528296
0.0404597855911
0.0404675494048
0.040475730819
0.0404843030526
0.0404932291295
0.0405024628619
0.0405119448378
0.0405216645924
0.0405315568648
0.0405415342282
0.0405515455522
0.0405615247911
0.0405713983515
0.0405810543432
0.0405902842308
0.0405985595106
0.0406044139306
0.0406037739479
0.0405856688026
0.0405221191506
0.0403457426855
0.0399059351758
0.0388934071903
0.0367544396664
0.0328576332374
0.0302286121172
0.0335767456689
0.0367019893598
0.0415073887794
0.044284182452
0.04567334835
0.0463144936101
0.0465921297883
0.0467062691094
0.0467518133304
0.0467703370356
0.0467788970043
0.0467840721458
0.0467882822276
0.0467923732841
0.046796629454
0.046801138254
0.046805920285
0.0468109713756
0.0468162761111
0.0468218135272
0.0468275591954
0.0468334920181
0.0468395755714
0.0468457647366
0.0468520174721
0.0468582812184
0.046864475631
0.0468704374646
0.0468757627561
0.0468793610816
0.0468782951831
0.0468648628467
0.0468198505328
0.0466978455728
0.0463985382444
0.0457160362655
0.0442649342776
0.041419410644
0.0365780385246
0.0333436324206
0.0351887122031
0.0387666515642
0.0442788214241
0.0476108582621
0.0493663266412
0.0502207700888
0.0506101936791
0.0507773642812
0.0508455877197
0.0508724277754
0.0508829864486
0.0508874964125
0.050889928999
0.0508917465638
0.0508934724073
0.0508952871053
0.0508972527598
0.0508993892001
0.0509017009688
0.0509041864068
0.0509068396379
0.050909648678
0.0509125981737
0.0509156666096
0.0509188234427
0.05092201968
0.0509251520232
0.050927964308
0.0509297784603
0.0509287797288
0.0509202629938
0.0508924734771
0.0508176540508
0.0506338903942
0.0502127643103
0.0493071665236
0.0474846808295
0.0440896196056
0.0385628078559
0.034878585376
0.0359090857542
0.039724858039
0.0456641119811
0.0493620894519
0.051378797645
0.052396821176
0.0528778958498
0.0530913573607
0.0531806215571
0.0532157596582
0.0532286803207
0.0532329313094
0.0532339746006
0.053233898439
0.0532334792976
0.0532329997146
0.0532325667904
0.0532322250867
0.0532319974996
0.0532318980369
0.0532319353044
0.0532321115836
0.0532324273533
0.0532328755293
0.053233435416
0.0532340559621
0.0532346031851
0.0532347160968
0.0532334294008
0.0532282107167
0.0532126929109
0.0531715334631
0.0530698966255
0.0528332675723
0.0523138124026
0.0512396722468
0.0491563286984
0.0454048633839
0.0394701437275
0.0355562150377
0.0362110470842
0.040135645843
0.0463028103275
0.050213585524
0.0523936679626
0.0535206902502
0.054066377875
0.0543141941918
0.0544198454906
0.0544617914965
0.0544768382525
0.0544810643086
0.0544811273246
0.0544796408766
0.0544776020282
0.054475384932
0.0544731373463
0.0544709255513
0.0544687873952
0.0544667492532
0.0544648312193
0.0544630477212
0.0544614097189
0.0544599198677
0.0544585632809
0.0544572841186
0.054455917789
0.0544540083355
0.0544503428232
0.0544417965091
0.0544206901196
0.0543689899968
0.0542468581671