/*--------------------------------*- C++ -*----------------------------------*\
| =========                 |                                                 |
| \\      /  F ield         | foam-extend: Open Source CFD                    |
|  \\    /   O peration     | Version:     4.1                                |
|   \\  /    A nd           | Web:         http://www.foam-extend.org         |
|    \\/     M anipulation  |                                                 |
\*---------------------------------------------------------------------------*/
FoamFile
{
    version     2.0;
    format      ascii;
    class       volScalarField;
    location    "0.5";
    object      k;
}
// * * * * * * * * * * * * * * * * * * * * * * * * * * * * * * * * * * * * * //

dimensions      [0 2 -2 0 0 0 0];

internalField   nonuniform List<scalar> 
96000
(
0.00816840596664
0.0082546097215
0.00840594119445
0.00848166962918
0.00851204981962
0.00852334824363
0.00852744398279
0.00852901201933
0.00852974286722
0.00853022801277
0.00853065852664
0.00853109581501
0.00853155697169
0.00853204684124
0.00853256547002
0.00853315485286
0.00853382013859
0.0085345569599
0.00853536038547
0.00853622293758
0.00853712809522
0.00853808306048
0.00853907223716
0.00854008393532
0.00854111551779
0.00854214947409
0.00854318154776
0.0085442005508
0.00854519093322
0.00854613841282
0.00854699979057
0.00854767972745
0.00854791024778
0.00854694597812
0.008542737485
0.00853002255319
0.00849586298101
0.00841327828499
0.00825374875876
0.00816869177743
0.00825481129319
0.00760923508683
0.00851564188147
0.00900132038647
0.00922376174232
0.00931937974314
0.00935834448731
0.00937381147239
0.00938013208082
0.00938315485177
0.00938507704861
0.00938670051168
0.00938829570647
0.00938995378471
0.00939170145985
0.00939354565858
0.00939548432746
0.00939751221261
0.00939962090922
0.00940179945035
0.00940403041306
0.00940631713059
0.00940864521976
0.00941098771938
0.00941333639937
0.00941567351852
0.00941798103074
0.00942023200418
0.00942237362865
0.00942427959858
0.00942559781345
0.00942536454013
0.00942098428081
0.00940590606892
0.00936441367658
0.00926172858638
0.00902584158864
0.00852177134508
0.00760712707037
0.00825523387508
0.00840549567567
0.00851406282573
0.0100381578665
0.0108809054462
0.0113017580001
0.0115004380904
0.0115888798987
0.0116263134421
0.0116416678394
0.0116481038021
0.011651145038
0.0116529917263
0.0116544675813
0.0116558739328
0.011657316216
0.0116588311624
0.0116604298461
0.0116621137665
0.0116638791585
0.011665719174
0.0116676236788
0.0116695896512
0.0116716036496
0.0116736476749
0.0116757076851
0.0116777626082
0.0116797811353
0.0116817012263
0.0116833752145
0.0116844215676
0.0116838346392
0.0116790546631
0.0116638208124
0.0116238174769
0.0115283230135
0.0113165357025
0.0108754701102
0.0100096536797
0.0084831320194
0.00839990778889
0.00848085588201
0.0089984167624
0.0108793219233
0.0119587708913
0.0125286343996
0.0128142166066
0.0129491261414
0.0130092949243
0.0130348006352
0.0130453009666
0.0130496748862
0.013051693454
0.0130528603571
0.0130537545268
0.0130545911464
0.0130554506485
0.0130563631164
0.0130573399461
0.0130583842458
0.0130594951898
0.013060669277
0.0130619036927
0.0130631901911
0.013064516681
0.0130658692482
0.0130672241242
0.013068535209
0.0130696951427
0.0130704318162
0.0130700455717
0.0130667651132
0.0130563120943
0.0130288641974
0.0129634317709
0.0128181403875
0.0125159647125
0.0119231951758
0.0108209283492
0.00894594988579
0.00847147653454
0.00851108802065
0.00922001859477
0.0112990091342
0.012527347538
0.0132002642217
0.013551116336
0.0137236826334
0.0138036269627
0.0138385690428
0.0138531063181
0.0138589258488
0.0138612246263
0.0138621677828
0.0138626206023
0.0138629167961
0.0138631853276
0.0138634772842
0.0138638146113
0.0138642072975
0.0138646600441
0.0138651743143
0.0138657500006
0.0138663830239
0.0138670654764
0.0138677840565
0.0138685113133
0.0138691843126
0.0138696460029
0.0138694933345
0.0138677075214
0.0138617915621
0.013845943649
0.0138074243379
0.0137202720713
0.0135352192436
0.0131660256573
0.0124696245617
0.0112205581676
0.00915474835172
0.00849983324454
0.00852233718633
0.00931520904366
0.0114969838734
0.0128120799765
0.0135502159142
0.01394524833
0.0141448640362
0.0142398169736
0.0142823139271
0.0143002783523
0.0143074411477
0.0143101061362
0.0143109806411
0.0143111759825
0.0143111317165
0.0143110213082
0.0143109151467
0.0143108445359
0.0143108251035
0.0143108656363
0.0143109710056
0.0143111434039
0.0143113814602
0.0143116793261
0.0143120234406
0.0143123815821
0.0143126740112
0.0143126973207
0.0143119319795
0.0143090876076
0.0143010783899
0.014280932252
0.0142338082737
0.0141304375682
0.0139171237833
0.0135029469754
0.0127414919599
0.0114076695976
0.00924368719706
0.00851029588671
0.00852642448911
0.0093539858722
0.0115850441711
0.0129464845712
0.0137222156688
0.0141442762763
0.0143612933365
0.0144663525938
0.0145141684902
0.0145346704007
0.0145429082374
0.0145459398315
0.0145468589282
0.0145469593355
0.0145467618858
0.0145464752093
0.0145461851577
0.0145459304251
0.0145457308157
0.0145455978721
0.0145455385175
0.0145455563297
0.0145456511302
0.0145458176361
0.0145460410409
0.0145462840472
0.0145464521466
0.0145463040729
0.0145452295328
0.0145417350633
0.0145323125845
0.0145091895156
0.0144561650895
0.0143419803919
0.0141105379796
0.0136688557579
0.0128698991602
0.0114908397773
0.0092797150267
0.00851409962879
0.00852799970188
0.00936939712883
0.0116223070488
0.0130063975316
0.0138018537724
0.0142388996483
0.0144660158399
0.0145771911479
0.0146283666373
0.0146505596182
0.0146595816285
0.0146629475832
0.014663994935
0.0146641368385
0.0146639490709
0.0146636647724
0.0146633807993
0.0146631410645
0.0146629681199
0.0146628750625
0.0146628697126
0.0146629559804
0.0146631336398
0.0146633966937
0.0146637282324
0.0146640859001
0.014664363082
0.0146642901648
0.01466319255
0.0146594389027
0.0146492455389
0.0146243397344
0.0145677129238
0.0144470047959
0.0142049263421
0.0137477354964
0.0129286930574
0.0115270161359
0.00929422361639
0.00851559009031
0.00852874340114
0.00937571946665
0.0116376013699
0.0130317909472
0.0138366491292
0.0142812321912
0.0145136605058
0.0146281941639
0.0146813042313
0.0147045379103
0.0147141012554
0.0147177576402
0.0147189821559
0.0147192579619
0.0147191942824
0.0147190397916
0.0147188985718
0.0147188179997
0.0147188223221
0.0147189253619
0.014719135031
0.0147194547782
0.0147198834232
0.0147204133661
0.014721024974
0.0147216709926
0.0147222350665
0.0147224271448
0.0147215292881
0.0147178216311
0.0147073504537
0.0146815474038
0.0146229483476
0.0144986141581
0.0142506956185
0.0137852310272
0.012955891228
0.0115432343946
0.00930041575719
0.00851636251579
0.00852924431496
0.00937877243747
0.0116440364
0.0130422602328
0.0138511340964
0.0142991335287
0.014534095674
0.0146503208143
0.0147044728134
0.0147283268396
0.0147382703673
0.0147421876822
0.0147436237938
0.0147440991843
0.0147442418366
0.0147443096907
0.0147444114013
0.0147445966023
0.0147448905468
0.0147453072463
0.0147458541657
0.0147465337191
0.0147473431203
0.0147482724918
0.0147492989634
0.0147503704003
0.0147513622382
0.0147519692482
0.0147514438688
0.0147480091224
0.0147376060557
0.0147114909239
0.0146519419617
0.0145257093398
0.0142746715895
0.0138048203987
0.0129701079389
0.0115519000844
0.00930393828593
0.00851698994526
0.00852969298748
0.0093807402803
0.0116471085053
0.0130466472339
0.0138569537309
0.0143062910703
0.0145423281971
0.0146593408388
0.0147140381749
0.0147382752176
0.0147485093044
0.0147526758876
0.0147543515292
0.0147550750065
0.0147554843282
0.0147558429424
0.0147562625145
0.0147567942605
0.0147574640684
0.0147582858439
0.014759266278
0.0147604063574
0.0147617012085
0.0147631381413
0.0147646905661
0.0147663012777
0.0147678381827
0.0147689837186
0.0147689683216
0.0147659772028
0.0147558811884
0.0147298249663
0.014670195711
0.014543302754
0.0142908579278
0.0138188106311
0.012980874851
0.0115594666821
0.00930754769953
0.00851765660756
0.00853015166198
0.00938242386018
0.0116490099022
0.0130487089714
0.013859287227
0.0143089891819
0.014545396225
0.0146627500566
0.0147177455962
0.0147422504647
0.0147527380361
0.0147571600368
0.0147591048396
0.0147601195447
0.0147608475736
0.014761555927
0.014762358512
0.0147633078342
0.0147644302705
0.014765739476
0.0147672411599
0.0147689345812
0.0147708123711
0.0147728585309
0.0147750422243
0.0147773007734
0.0147794946353
0.0147812980655
0.0147819270101
0.0147798211882
0.0147707625643
0.014745782637
0.0146867365606
0.0145599149257
0.0143066943214
0.0138331315575
0.0129926593721
0.0115683922402
0.00931227376767
0.00851843142752
0.0085306393341
0.00938409498241
0.0116505637284
0.0130499455176
0.0138602939817
0.0143099284975
0.0145463867766
0.0146638797946
0.0147190650179
0.0147437936666
0.014754530637
0.0147592276434
0.0147614754889
0.0147628248617
0.0147639224593
0.0147650380078
0.0147662874072
0.0147677244219
0.0147693759246
0.0147712552773
0.0147733670693
0.0147757085749
0.0147782695441
0.014781030165
0.0147839548456
0.0147869774017
0.0147899571717
0.0147929548309
0.0147951766446
0.014794634094
0.0147869772417
0.0147631847501
0.0147048950503
0.0145783439787
0.0143246076038
0.0138497494206
0.0130068701942
0.0115795091961
0.00931835925261
0.00851933561464
0.00853116023559
0.00938584996943
0.0116520748897
0.0130509381594
0.0138608407548
0.0143102215641
0.0145465952018
0.0146641455083
0.0147194829697
0.0147444299943
0.0147554321055
0.0147604337724
0.0147630240861
0.0147647553358
0.0147662767099
0.0147678604834
0.0147696246249
0.0147716243003
0.0147738869899
0.0147764257876
0.0147792440665
0.0147823368766
0.014785690723
0.0147892822163
0.0147930784535
0.0147973255042
0.0148021027631
0.0148069477015
0.0148109297511
0.014812044449
0.0148059016126
0.014783391421
0.0147259939492
0.0145998210521
0.0143456815301
0.0138695458144
0.0130241535167
0.011593258839
0.00932602904917
0.00852037901535
0.00853172111573
0.00938771962355
0.0116536534676
0.0130519064999
0.0138612655313
0.0143103124466
0.0145465474543
0.0146641290418
0.0147196159632
0.0147447961821
0.0147560909002
0.0147614342347
0.0147644119097
0.014766577187
0.0147685816728
0.0147707003894
0.0147730536579
0.0147756983187
0.0147786626612
0.0147819595971
0.0147855912252
0.0147895502369
0.0147938229392
0.0147984643435
0.0148040370869
0.0148103481058
0.0148171255617
0.0148239076581
0.0148297568362
0.0148326488235
0.0148281477777
0.014807021558
0.0147506366842
0.0146249152763
0.0143704093894
0.0138929307542
0.0130448239797
0.0116098847349
0.00933542257414
0.00852156183319
0.00853238202178
0.00938971341195
0.0116553410754
0.0130529361095
0.013861702644
0.0143103804865
0.0145464588338
0.0146640712873
0.0147197217633
0.0147451608485
0.0147567829957
0.0147625106841
0.0147659257628
0.0147685825084
0.0147711352563
0.0147738622032
0.0147768864637
0.014780266942
0.0147840330241
0.0147881975965
0.0147927616622
0.0147977231151
0.0148034114888
0.0148101855153
0.0148179061418
0.0148263619604
0.014835242959
0.0148440837901
0.0148519351327
0.0148567464576
0.0148540144894
0.0148344012681
0.0147791402194
0.0146539606364
0.0143990508265
0.0139201577388
0.0130691027022
0.0116295886534
0.00934666326766
0.00852288387774
0.00853313943919
0.00939183374672
0.0116571534706
0.0130540621332
0.0138622086319
0.0143105021534
0.0145464221644
0.0146640772303
0.0147199139987
0.0147456438836
0.0147576332665
0.0147637925293
0.0147676996938
0.0147709104478
0.0147740824006
0.0147774975196
0.0147812822924
0.0147854981917
0.0147901761011
0.0147953294612
0.0148009713529
0.0148076850083
0.0148157163406
0.0148247964628
0.0148347674024
0.0148454481104
0.0148565664987
0.0148676137665
0.0148776219749
0.0148845081308
0.0148837011547
0.0148657398524
0.0148116879586
0.0146870877754
0.0144317970486
0.0139513650063
0.0130971290056
0.0116525363624
0.00935985905883
0.00852436686059
0.00853398944323
0.00939407843861
0.0116590961659
0.0130553004711
0.0138628104475
0.0143107144746
0.0145464828151
0.0146641986612
0.0147202493841
0.0147463060042
0.0147587060705
0.0147653478363
0.0147698058536
0.0147736378372
0.0147775053895
0.0147816949977
0.0147863372328
0.0147914967973
0.0147972075207
0.0148035017825
0.0148112530663
0.014820363282
0.0148307373193
0.0148422218763
0.0148545917425
0.0148676642142
0.0148811710439
0.0148945892282
0.0149069168574
0.014916033271
0.0149173045806
0.0149011377794
0.0148483995934
0.0147244105607
0.0144686935927
0.0139865980175
0.0131289629413
0.0116788438427
0.0093751048453
0.00852611389567
0.00853492700896
0.00939644211258
0.0116611689459
0.0130566581427
0.0138635224688
0.0143110381811
0.0145466666367
0.0146644653668
0.0147207608484
0.0147471828843
0.014760039802
0.0147672179733
0.0147722890504
0.0147768135603
0.0147814579727
0.0147865141936
0.0147921177677
0.0147983389981
0.0148052980034
0.0148138739635
0.0148239961206
0.0148356082481
0.0148484557556
0.0148624553935
0.0148773782396
0.0148930226161
0.0149090965458
0.0149250552915
0.0149398930519
0.0149514099804
0.0149548896117
0.0149406099668
0.0148892418961
0.0147658598149
0.01450964664
0.0140257542401
0.0131645171888
0.011708495272
0.00939253789727
0.00852818215123
0.00853594555123
0.00939891534913
0.0116633666516
0.0130581366993
0.0138643526126
0.014311486154
0.0145469902574
0.014664896697
0.0147214698636
0.0147482978695
0.0147616597404
0.0147694304365
0.0147751794602
0.0147804710927
0.0147859776924
0.0147919976588
0.0147986740901
0.0148061879287
0.0148154615668
0.0148264983292
0.0148391686043
0.0148533268203
0.0148688166047
0.0148854860986
0.014903131058
0.0149215335364
0.0149403539839
0.014959044344
0.0149765283449
0.0149905698905
0.0149963486881
0.0149840233134
0.0149340398093
0.014811233518
0.0145544341016
0.0140685886288
0.0132035463005
0.0117410538911
0.00941239638856
0.00853068776313
0.00853702888472
0.00940147810373
0.0116656800359
0.013059734616
0.0138653049885
0.0143120665628
0.0145474646803
0.0146655055326
0.0147223906256
0.0147496662326
0.0147635822802
0.0147720029824
0.0147784966052
0.0147846322723
0.0147910894174
0.0147981750172
0.014806120293
0.0148159519572
0.0148277188696
0.0148413015162
0.0148566151903
0.0148734666347
0.0148917512966
0.0149112753199
0.0149318288485
0.0149531568777
0.0149748890196
0.0149964354302
0.0150166717865
0.0150333081072
0.0150414420903
0.0150311005847
0.0149825127086
0.01486025244
0.014602781805
0.0141148269101
0.0132457464905
0.0117760549505
0.00943454836926
0.0085338365358
0.00853817782724
0.00940413208062
0.0116681058773
0.0130614499404
0.0138663808161
0.0143127834625
0.0145480960375
0.0146662991752
0.0147235310171
0.0147512961335
0.0147658158117
0.0147749443771
0.0147822499258
0.0147893076546
0.0147968057024
0.0148050781881
0.0148153098969
0.0148276054212
0.0148419261118
0.0148581893794
0.0148762386764
0.0148959581587
0.0149171943503
0.0149397498899
0.0149633751066
0.0149877697797
0.0150125151019
0.0150369828867
0.0150600229777
0.0150793067847
0.0150898569614
0.0150815657932
0.0150344273955
0.0149127286392
0.0146545330763
0.0141643210627
0.0132909215883
0.0118133101444
0.00945856642418
0.00853800515866
0.00853939031475
0.00940687147884
0.0116706338563
0.0130632750914
0.0138675762434
0.0143136359157
0.014548884993
0.0146672788155
0.0147248920243
0.0147531879365
0.0147683599136
0.0147782534244
0.014786437604
0.0147944952446
0.0148031363528
0.0148135264108
0.0148261395018
0.0148410054887
0.0148579842706
0.0148769958098
0.0148979436208
0.0149206853401
0.0149450353171
0.0149707654337
0.0149975724878
0.015025099024
0.0150528983011
0.0150803329069
0.0151062491526
0.0151282904506
0.0151413975874
0.0151353037889
0.0150897365855
0.0149686611318
0.0147097072575
0.014217081435
0.0133388319403
0.0118529019873
0.00948418671407
0.00854312262935
0.00854064311163
0.00940966653743
0.0116732420652
0.013065194941
0.0138688810878
0.0143146162763
0.0145498248732
0.0146684374315
0.0147264654493
0.0147553317412
0.0147712026999
0.0147819161111
0.0147910435495
0.0148001834993
0.0148105990047
0.0148234078031
0.0148385446479
0.0148559846007
0.0148756925173
0.0148976006535
0.0149215852007
0.0149474844595
0.0149750775681
0.015004061515
0.0150340841644
0.0150647622445
0.0150956649003
0.0151261779354
0.0151551457148
0.0151801620697
0.0151960530263
0.0151923631551
0.0151485239178
0.0150281494001
0.0147684029803
0.014273187495
0.0133895073565
0.0118946936061
0.00951116026583
0.00854880756051
0.00854192582881
0.00941249548687
0.0116759093966
0.0130671906069
0.0138702778458
0.0143157070998
0.0145508970794
0.0146697542961
0.0147282277998
0.0147577008448
0.0147743139374
0.0147858984366
0.0147960325335
0.014806643522
0.0148194074235
0.0148345747352
0.0148522338353
0.0148723621382
0.0148949132513
0.0149198275019
0.014946962621
0.0149761193492
0.0150070005644
0.0150392458693
0.0150724864188
0.0151063797665
0.0151405406063
0.0151743624706
0.0152066511199
0.015234918374
0.0152538518136
0.0152527874748
0.0152108408389
0.0150912534088
0.0148306988781
0.0143327346228
0.0134431473493
0.0119388584888
0.00953942195867
0.00855494042013
0.00854323388388
0.00941534228467
0.0116786107849
0.0130692328318
0.0138717331441
0.0143168698898
0.014552057614
0.0146711797906
0.0147301239147
0.0147602345379
0.0147776272305
0.0147901285395
0.014801382385
0.0148141415221
0.0148292303391
0.014846841172
0.0148670695125
0.0148899386557
0.0149154105182
0.0149434174411
0.0149737814223
0.015006217199
0.0150403641094
0.0150758530089
0.0151123806588
0.0151496687067
0.0151873428398
0.0152247611121
0.015260661675
0.0152924565038
0.0153146831047
0.0153164567494
0.0152765636105
0.0151578582903
0.0148965106624
0.0143956046735
0.0135000492404
0.0119859084577
0.00956968931895
0.00856160327339
0.00854454578162
0.00941818093071
0.0116813064908
0.0130712667462
0.0138731748472
0.0143180149911
0.0145532010873
0.0146725952049
0.014732023941
0.0147627932043
0.014780993851
0.0147944548304
0.0148074829972
0.0148223880827
0.0148397764239
0.0148598377572
0.0148826859788
0.014908363952
0.014936833143
0.0149679836548
0.015001571208
0.0150372364125
0.0150746053653
0.0151133935434
0.0151533823994
0.0151943109853
0.0152357714149
0.0152770611395
0.0153168375501
0.0153524043708
0.0153781435108
0.0153829411866
0.0153452442291
0.0152275081927
0.0149653826847
0.0144613867101
0.0135597158793
0.012035380926
0.0096019092449
0.00856883451896
0.00854584836101
0.00942097855559
0.0116839249076
0.0130731733433
0.013874432524
0.014318923779
0.0145540690038
0.0146737114475
0.0147336158549
0.0147650468898
0.0147840702792
0.0147987688142
0.0148138484131
0.0148309059
0.0148505583185
0.0148730787636
0.0148985845716
0.0149270919408
0.0149585723638
0.0149928457157
0.0150295802401
0.0150683933316
0.0151089995204
0.015151222845
0.0151948769169
0.0152396736564
0.0152851495981
0.0153305312143
0.0153743903115
0.0154139178646
0.0154433388625
0.0154513067289
0.0154159245168
0.0152992408897
0.0150363699939
0.0145291838631
0.0136212098495
0.0120862851459
0.00963497799751
0.00857641206486
0.00854712937372
0.00942367402869
0.011686303934
0.0130746623302
0.0138750814995
0.0143190516152
0.0145540223949
0.0146738214325
0.014734145104
0.0147662069495
0.0147860455282
0.0148024511442
0.0148195091552
0.0148386763636
0.0148605918628
0.0148855491504
0.0149136683181
0.0149450047815
0.014979444452
0.0150167333158
0.0150564863969
0.0150983931443
0.0151423000061
0.0151880884185
0.015235558276
0.0152843739333
0.0153340080671
0.0153836128989
0.0154316720817
0.0154752718038
0.0155084777918
0.0155197211885
0.0154867738912
0.0153712878463
0.0151077944425
0.0145976068029
0.013683477535
0.0121379438963
0.00966849607755
0.00858422847178
0.00854836248311
0.00942612854509
0.011688040817
0.0130750050919
0.0138740672042
0.0143170659819
0.0145515195408
0.0146712393298
0.0147318307515
0.0147644300304
0.014785301815
0.0148034630622
0.0148224025417
0.0148435993775
0.0148677084183
0.0148950335627
0.0149257216664
0.0149597821015
0.0149970390607
0.0150371532001
0.015079773364
0.0151247286062
0.0151719567791
0.0152213470823
0.015272665131
0.0153255212883
0.0153793215635
0.0154331467778
0.0154854005155
0.0155330678379
0.0155700795215
0.0155846780105
0.0155543497754
0.0154403982777
0.0151767801287
0.0146643178593
0.0137447844669
0.0121893136068
0.00970219534605
0.00859221023134
0.00854949988103
0.00942797031354
0.0116880930374
0.0130723793849
0.0138688299235
0.0143098079612
0.0145429695327
0.0146620888456
0.0147226161877
0.0147555450093
0.0147776329566
0.0147973689713
0.0148180348001
0.0148411180374
0.0148672784361
0.0148968309308
0.0149299156859
0.0149664868049
0.0150062835317
0.0150489462803
0.0150942335095
0.0151421011724
0.015192524792
0.015245377506
0.01530038457
0.01535710216
0.0154148751714
0.0154727178851
0.0155289654017
0.0155805304666
0.0156212587372
0.0156392786718
0.0156118956881
0.015500182987
0.0152376184209
0.0147245243409
0.0138015918621
0.0122382830874
0.00973512186061
0.00860017139103
0.00855044330327
0.00942820350498
0.0116838392166
0.0130624227635
0.0138534665348
0.0142901896738
0.0145204704703
0.0146379540935
0.0146977756021
0.0147307295762
0.0147538927806
0.0147749314065
0.0147970778243
0.0148218039633
0.0148497581721
0.0148812581522
0.0149164199694
0.0149551194159
0.0149970329364
0.015041845427
0.0150894578127
0.0151398992386
0.0151931506757
0.015249062623
0.0153073226663
0.0153674379452
0.0154286970224
0.0154900622405
0.015549828441
0.0156048896209
0.0156490946496
0.0156706029979
0.0156467443047
0.0155386047511
0.0152793739156
0.0147690698346
0.0138470640861
0.012280577957
0.00976555458693
0.00860784061949
0.00855089910171
0.00942417107747
0.011668908667
0.0130351733484
0.0138150779297
0.01424319396
0.0144676289959
0.0145816159457
0.0146396147713
0.0146721681143
0.0146958525897
0.0147177198798
0.0147408872707
0.0147668002209
0.0147960917033
0.0148290565079
0.0148657342254
0.0149059403999
0.0149493254006
0.0149956670648
0.0150449826678
0.015097329995
0.0151526820652
0.0152108714529
0.0152715550813
0.0153341988255
0.0153980447488
0.0154620286599
0.0155244522233
0.0155822668546
0.0156294727069
0.015654511422
0.0156350935176
0.0155327699545
0.0152809148847
0.014779550874
0.0138666313361
0.0123065581439
0.00978916626755
0.00861460941678
0.00855009984922
0.00940922879835
0.011628831687
0.0129694620245
0.0137275103527
0.0141393487027
0.0143529691761
0.0144604788452
0.014514937101
0.0145462320664
0.0145696343334
0.0145916909106
0.0146152985763
0.0146417808091
0.0146717505217
0.0147054404395
0.0147428371774
0.014783685817
0.0148276556361
0.0148746295707
0.0149246897076
0.0149779001535
0.0150342237825
0.0150934889843
0.0151553316632
0.0152191860368
0.0152842293543
0.0153494306057
0.0154131748241
0.0154725954067
0.0155220676557
0.0155506579162
0.0155370205893
0.0154439196017
0.0152058499831
0.014723523484
0.0138338730727
0.0122980108348
0.00979759556547
0.00861924339374
0.00854592737091
0.00936750911244
0.0115326714985
0.012823193527
0.0135412789422
0.0139247390647
0.014120165592
0.0142170076727
0.0142656192018
0.0142942206391
0.0143162425808
0.0143375353887
0.014360672182
0.0143868146484
0.0144164484028
0.0144497907023
0.0144867566387
0.0145270447558
0.0145703625026
0.0146166759792
0.0146660753641
0.0147186191496
0.0147742725478
0.0148328359116
0.014893950765
0.0149570114676
0.015021274976
0.0150857331709
0.0151488812215
0.0152082574174
0.0152588321864
0.015290786283
0.0152844941497
0.0152050941398
0.0149897114154
0.0145413301117
0.0136972891254
0.0122160833069
0.00976935679301
0.00861852459805
0.00853304529678
0.00926408248895
0.0113194871853
0.0125192460673
0.0131700818898
0.0135084015708
0.0136761956342
0.0137574115669
0.0137977480037
0.0138221502921
0.0138417116406
0.0138612990365
0.0138829684143
0.0139076720653
0.0139358308602
0.0139675943144
0.0140028372568
0.0140412181552
0.0140824767039
0.0141266297034
0.0141737210613
0.0142236631716
0.0142764366254
0.0143320960994
0.0143902405613
0.0144502806916
0.0145113872305
0.0145727194049
0.0146330380457
0.0146902992226
0.0147403880217
0.0147751570278
0.0147776923194
0.0147170962754
0.0145354286019
0.0141408459383
0.0133743987346
0.0119952733379
0.00966684085943
0.00860585985504
0.00849839199812
0.00902685604896
0.0108762582881
0.0119239355374
0.0124709139566
0.012743994126
0.0128740916037
0.0129349984176
0.0129648044543
0.0129833903045
0.0129991514719
0.0130156810073
0.0130344504371
0.0130561647232
0.0130811764179
0.013109630504
0.0131414029395
0.0131761056359
0.0132133117601
0.0132529461254
0.0132951318495
0.0133398798015
0.0133871090862
0.0134370313014
0.0134893636202
0.0135433909152
0.0135982590241
0.0136534037902
0.0137078590209
0.0137601191971
0.0138072356913
0.0138432067702
0.0138548601398
0.0138172282217
0.0136806202926
0.0133630794778
0.0127162607394
0.0115088279597
0.00940840675917
0.00856624344266
0.00841502623542
0.00852122737677
0.010008120487
0.0108190677273
0.0112190661534
0.0114071740177
0.0114917462053
0.0115296702351
0.011548240443
0.0115606886956
0.0115720745904
0.0115846219853
0.0115992240447
0.01161637932
0.0116363831477
0.0116594722328
0.0116853334949
0.0117135263482
0.0117437845279
0.0117761350971
0.0118106650943
0.0118472608285
0.011885598707
0.0119261102837
0.0119690744737
0.0120133207569
0.0120581729392
0.0121032545788
0.0121480112999
0.0121915069011
0.0122319539585
0.0122658182229
0.0122845590914
0.0122711819831
0.0121885241115
0.0119718527252
0.0114955287463
0.0105562490219
0.00885926801511
0.00847320342363
0.00825486168177
0.00760605334657
0.00848061516094
0.00894284028325
0.00915166053658
0.00924106756164
0.00927780506797
0.00929320920886
0.00930069358918
0.00930608245816
0.00931143426966
0.00931756983129
0.00932486386361
0.00933356548607
0.00934378572212
0.00935583235504
0.00937038165199
0.0093874391698
0.00940631264431
0.00942668859535
0.00944853633491
0.00947177888766
0.0094959812984
0.00952133635862
0.00954889805289
0.00957734093788
0.0096064601598
0.00963597881207
0.00966572188116
0.00969508594048
0.00972312416815
0.00974837300266
0.00976703161457
0.0097711538708
0.00974096878527
0.00964010693583
0.00938821087195
0.00884971108041
0.00784811787337
0.00829973174761
0.00816872334467
0.00825503554516
0.00839947434024
0.00847091824708
0.00849925092997
0.00850975744263
0.00851364116146
0.00851524709638
0.00851613459482
0.0085168408424
0.00851753639151
0.00851828592305
0.00851911243687
0.00852004273644
0.00852122733344
0.00852279397394
0.00852476058041
0.00852726675065
0.00853051534321
0.00853458170044
0.00853934411275
0.00854460563172
0.00855025385997
0.00855622709642
0.00856263958916
0.00856935109535
0.00857616713787
0.00858306020052
0.00858993382351
0.0085966926449
0.00860321923102
0.00860929076812
0.00861439652984
0.00861744204691
0.00861550037341
0.00860216620866
0.00856267672334
0.00847037502133
0.00829714513882
0.00817983376436
0.00835214085181
0.0094156002356
0.0100872168714
0.0104166407257
0.0105636212792
0.0106255140772
0.0106506346676
0.0106611924347
0.0106663418634
0.0106697496659
0.0106727091066
0.0106756878349
0.0106788223741
0.0106821538964
0.0106856833878
0.0106893589511
0.0106931595285
0.0106970718376
0.0107010808165
0.0107051655242
0.0107092776278
0.0107134653193
0.0107177770854
0.0107221396837
0.0107265356959
0.010730935275
0.0107353310174
0.0107396565574
0.0107438916578
0.0107479563606
0.0107516598501
0.0107544455568
0.010754753246
0.0107484850861
0.0107252921309
0.010661456388
0.0105058134011
0.0101585570481
0.00945762530509
0.00835504760225
0.00941238953004
0.0156389416395
0.0184068865253
0.0197869541589
0.0204579909334
0.0207695295487
0.0209068606807
0.0209653097373
0.0209902339851
0.021001934096
0.0210087622119
0.0210140193894
0.0210189191197
0.0210239036129
0.0210291207189
0.0210346165973
0.0210403967393
0.0210464507926
0.0210527583973
0.0210592876311
0.0210659960874
0.0210728768465
0.0210798865348
0.0210869585429
0.0210940540977
0.0211011130333
0.021108063139
0.0211147846874
0.0211210326256
0.0211262157634
0.0211287992442
0.0211248936264
0.0211048652486
0.0210464660279
0.0209009757175
0.0205700497744
0.019865003057
0.0184387902551
0.015618066426
0.00938773625452
0.010081727712
0.0184031243688
0.022214931044
0.0242272676375
0.0252744362173
0.0257975744896
0.0260456461859
0.0261576792732
0.0262064791947
0.0262278491692
0.0262380210977
0.026243953779
0.0262484365266
0.0262525526526
0.026256702422
0.0262610319416
0.0262655893182
0.0262703855598
0.02627541334
0.0262806542332
0.0262860828837
0.0262916845262
0.0262974216326
0.0263032465047
0.0263091129294
0.0263149516897
0.0263206509451
0.0263259813286
0.0263304015005
0.0263325720163
0.026329162933
0.0263122506421
0.026263789193
0.0261455144431
0.0258810823573
0.02532920067
0.024239121736
0.022175359618
0.0183126370065
0.0100340387371
0.0104098708233
0.0197803399834
0.0242241180056
0.0266658519472
0.0279947225767
0.0286914920411
0.0290387872412
0.0292030495839
0.0292770524478
0.0293094397421
0.0293237602183
0.0293307250517
0.0293348862136
0.0293380983804
0.0293410831986
0.029344117768
0.0293473055029
0.0293506836182
0.0293542606798
0.0293580315952
0.0293619838195
0.0293661046467
0.0293703664532
0.029374731199
0.0293791511983
0.0293835444153
0.0293877492006
0.0293913956278
0.0293935807382
0.0293920995654
0.0293816862857
0.0293504094113
0.0292726283893
0.0290971247955
0.0287278525205
0.0279970362546
0.0266215993516
0.0241286370999
0.019640734806
0.0103474293798
0.0105562393407
0.0204494302214
0.0252689057539
0.0279921860902
0.0295205362978
0.0303489020456
0.030776343861
0.0309854473511
0.031082408818
0.0311254575128
0.0311441069608
0.031152368431
0.0311564502505
0.0311589749298
0.0311609998833
0.0311629440125
0.0311649713371
0.0311671472269
0.0311694963865
0.0311720257602
0.0311747326409
0.0311776091064
0.0311806351664
0.0311837796018
0.031186992157
0.0311901743332
0.0311931083364
0.0311952734516
0.0311953964733
0.0311904292453
0.0311733231147
0.0311286850086
0.0310247822947
0.0308008674616
0.0303478377629
0.0294825920297
0.0279066571721
0.0251345195587
0.0202785110959
0.0104856463105
0.0106179249305
0.0207598889863
0.0257905492491
0.0286872527802
0.0303471222852
0.0312673075333
0.0317535861207
0.0319972241756
0.0321127223377
0.0321648295115
0.0321874228685
0.0321970789376
0.0322013622415