/*--------------------------------*- C++ -*----------------------------------*\
| =========                 |                                                 |
| \\      /  F ield         | foam-extend: Open Source CFD                    |
|  \\    /   O peration     | Version:     4.1                                |
|   \\  /    A nd           | Web:         http://www.foam-extend.org         |
|    \\/     M anipulation  |                                                 |
\*---------------------------------------------------------------------------*/
FoamFile
{
    version     2.0;
    format      ascii;
    class       volScalarField;
    location    "0.5";
    object      nut;
}
// * * * * * * * * * * * * * * * * * * * * * * * * * * * * * * * * * * * * * //

dimensions      [0 2 -1 0 0 0 0];

internalField   nonuniform List<scalar> 
96000
(
0.000243967813766
0.000245462671126
0.000247891366615
0.000249117745368
0.000249620850614
0.000249812896334
0.000249884284514
0.000249912104434
0.000249925060065
0.000249933495937
0.000249940847257
0.000249948249597
0.000249956028557
0.000249964277433
0.000249973013207
0.000249984783498
0.000249998039
0.000250012402373
0.000250027791863
0.000250044071782
0.000250060950645
0.000250078625298
0.000250096823426
0.000250115331455
0.000250134101176
0.000250152860476
0.000250171521208
0.0002501898758
0.000250207668315
0.00025022460884
0.000250239911919
0.000250251811098
0.000250255414719
0.000250237645483
0.000250163458482
0.0002499459865
0.000249377749337
0.000248036578249
0.000245472756145
0.000243971951294
0.000245464887642
0.000157782243034
0.000167346275112
0.000172326847084
0.000174617812795
0.000175621350936
0.000176040285555
0.000176210535041
0.000176281143284
0.000176314734574
0.000176335525142
0.000176352613962
0.000176369147171
0.000176386214757
0.000176404144685
0.000176423029599
0.000176442853817
0.000176463565389
0.000176485081314
0.000176507282377
0.000176529987008
0.000176553254711
0.000176576933591
0.000176600734178
0.000176624589193
0.000176648315654
0.000176671727892
0.000176694528889
0.000176716111337
0.000176734989316
0.000176747074534
0.000176741456594
0.000176689556525
0.000176521481454
0.000176074471175
0.000174997422171
0.000172569808533
0.000167401378418
0.00015774680351
0.000245462543974
0.000247883124414
0.000167329731705
0.000182189356139
0.000190004930038
0.000193872484834
0.000195717913777
0.000196556207259
0.000196919792154
0.000197072674669
0.000197138131909
0.000197169386779
0.000197188259588
0.000197203135694
0.000197217156372
0.000197231440319
0.000197246381749
0.000197262100113
0.000197278612709
0.000197295882651
0.000197313838761
0.000197332384856
0.00019735150013
0.000197371047044
0.000197390850598
0.000197410777423
0.000197430617497
0.0001974500491
0.000197468417241
0.000197484157174
0.000197493286064
0.000197485545012
0.000197435543422
0.000197282962567
0.000196893940485
0.000195988401523
0.000194020270781
0.000189962542649
0.000181917797591
0.000166998824913
0.000247785299214
0.000249103825265
0.000172296956897
0.000189990211915
0.000199536482264
0.000204490810871
0.000206986550787
0.000208185623842
0.000208732890813
0.000208971075891
0.000209072033404
0.000209115500593
0.000209136323375
0.000209148773043
0.000209158480267
0.000209167577195
0.000209176868004
0.000209186650112
0.000209197030931
0.000209208034106
0.000209219643504
0.000209231820921
0.000209244536874
0.000209257703345
0.000209271199484
0.000209284886375
0.00020929852329
0.000209311639667
0.000209323144407
0.00020933031508
0.000209326311732
0.000209294268304
0.000209194607778
0.000208939069478
0.000208344265964
0.000207051981753
0.000204407322177
0.000199241717571
0.00018946181037
0.00017175927154
0.000248945838965
0.000249604499884
0.000174579607605
0.000193847264822
0.000204479545203
0.000210178104396
0.000213154310355
0.000214639661648
0.000215342984667
0.00021565859346
0.00021579407258
0.000215850625323
0.000215874545727
0.000215885651466
0.000215892063838
0.000215896977607
0.000215901640211
0.000215906540971
0.000215911880969
0.000215917742417
0.000215924155604
0.000215931121493
0.000215938627139
0.000215946619424
0.000215955010256
0.000215963658372
0.000215972280293
0.000215980238571
0.000215985974887
0.000215985581833
0.000215969437299
0.000215914601559
0.000215769311072
0.000215423133124
0.000214656936141
0.000213062208481
0.000209923537352
0.000204007360382
0.000193151182307
0.000173920503115
0.000249415955078
0.00024979570712
0.000175578879521
0.000195686356834
0.000206967974406
0.000213146660577
0.000216452303467
0.000218144935066
0.000218967243543
0.000219345000081
0.00021950983119
0.000219578526531
0.000219606238563
0.00021961731409
0.000219622005978
0.000219624454134
0.000219626311417
0.000219628243591
0.000219630535236
0.000219633316646
0.00021963665148
0.000219640566822
0.000219645065142
0.000219650114411
0.000219655640369
0.000219661492988
0.000219667337045
0.000219672370486
0.000219674601486
0.000219669072828
0.000219643803218
0.000219570939802
0.000219389380447
0.000218972740536
0.000218078104267
0.000216266713036
0.000212792010373
0.000206395231904
0.000194901077795
0.000174861084426
0.00024959396631
0.000249866939138
0.00017599593236
0.000196521210305
0.000208162716546
0.00021462724601
0.000218140018017
0.000219969116996
0.00022087315525
0.000221295434429
0.000221482327508
0.000221560833369
0.000221592220887
0.000221604104166
0.000221608334704
0.000221609785497
0.000221610432896
0.000221611085531
0.000221612094876
0.000221613627414
0.000221615769411
0.000221618563644
0.000221622022061
0.000221626121211
0.00022163078909
0.000221635860307
0.000221640947428
0.00022164510463
0.000221645984398
0.000221637804462
0.000221606800886
0.000221521555039
0.0002213144917
0.00022084874957
0.000219866864641
0.000217913366913
0.000214227631135
0.000207544837245
0.000195697450343
0.000175253311784
0.000249660217682
0.000249894880738
0.000176165667975
0.00019688330265
0.00020870784167
0.000215328054513
0.000218959639497
0.000220870414027
0.000221825315368
0.000222276440657
0.000222478368382
0.000222564135606
0.000222598803189
0.000222612088738
0.000222616909117
0.000222618641195
0.00022261949002
0.000222620367148
0.000222621671897
0.000222623594866
0.000222626235139
0.000222629642207
0.000222633829739
0.000222638773044
0.000222644392641
0.000222650502267
0.000222656665002
0.000222661818217
0.000222663346382
0.000222654875174
0.000222621410879
0.00022252916494
0.000222306437391
0.00022181000996
0.000220774189731
0.000218735035233
0.000214926656594
0.000208085417527
0.000196054796321
0.000175417020087
0.000249686515659
0.000249908060122
0.000176236374802
0.000197035749025
0.000208945183661
0.000215642561661
0.000219336163132
0.000221291409452
0.000222275148051
0.000222743374559
0.000222954784964
0.000223045634911
0.00022308310278
0.00022309812358
0.000223104252635
0.000223107178854
0.000223109253892
0.00022311145718
0.000223114219744
0.000223117746991
0.000223122143835
0.000223127460017
0.000223133704765
0.000223140844989
0.00022314878705
0.000223157319996
0.000223165961223
0.00022317355579
0.000223177294946
0.000223170401549
0.000223137080902
0.000223042057239
0.000222811146919
0.000222297476181
0.000221230947546
0.000219143582372
0.000215268025416
0.000208343231843
0.000196220949187
0.000175489928856
0.00024970168971
0.000249916771882
0.00017627037604
0.000197101358853
0.000209046065191
0.00021577781035
0.00021950068836
0.000221477972434
0.000222476751016
0.000222954470613
0.000223171659623
0.000223266102395
0.000223306038892
0.000223323038499
0.000223331003715
0.000223335800431
0.000223339867678
0.000223344227154
0.000223349329891
0.000223355389621
0.000223362512299
0.000223370743364
0.000223380082978
0.000223390484433
0.0002234018348
0.000223413895174
0.000223426139439
0.000223437337177
0.000223444538102
0.000223440690283
0.000223409480368
0.000223314705356
0.000223080696384
0.000222558540516
0.000221475727481
0.000219362333857
0.000215450800552
0.000208481967158
0.000196313938322
0.000175537684067
0.000249715016522
0.000249924438703
0.00017629173897
0.000197133088752
0.000209089887474
0.000215834635805
0.000219569628567
0.000221556730482
0.00022256280059
0.000223045636104
0.000223266440902
0.000223363614509
0.000223405862611
0.000223425048295
0.000223435246357
0.000223442416722
0.000223449048947
0.000223456191147
0.000223464307322
0.000223473615674
0.000223484220397
0.000223496159756
0.000223509421605
0.000223523941765
0.000223539583971
0.00022355607817
0.000223572854756
0.000223588616642
0.000223600302221
0.00022360065994
0.000223573082896
0.000223480747056
0.000223247069104
0.000222730103974
0.00022164835435
0.000219527549226
0.000215601999934
0.00020860718207
0.000196415462876
0.000175596605396
0.000249728572133
0.000249932208573
0.000176309544618
0.000197152674564
0.000209111361936
0.000215859168277
0.000219597959724
0.000221588774312
0.000222598184032
0.0002230838836
0.000223307212419
0.000223406731107
0.000223451303931
0.000223472907025
0.000223485692847
0.000223495669904
0.000223505358093
0.000223515823454
0.000223527539384
0.00022354072671
0.000223555486286
0.000223571847335
0.000223589782915
0.000223609208172
0.00022362995978
0.000223651732912
0.000223673912884
0.000223695140494
0.00022371234831
0.000223718186149
0.000223704387004
0.000223630001554
0.000223413059547
0.000222901094899
0.000221818807213
0.000219691444625
0.000215753809044
0.000208739678648
0.000196524251785
0.000175663944178
0.000249743558081
0.000249940433367
0.000176326947912
0.000197168486631
0.000209124717377
0.000215871164812
0.000219609959776
0.00022160164837
0.00022261255371
0.000223100090264
0.000223325495063
0.000223427277727
0.000223474313793
0.000223498603951
0.000223514331695
0.000223527531873
0.000223540745254
0.000223555052242
0.000223570934476
0.000223588614908
0.000223608190378
0.000223629679785
0.000223653039325
0.000223678160509
0.000223704849407
0.000223732764749
0.000223761319023
0.000223789231419
0.000223825240701
0.000223854661708
0.000223856374898
0.000223791873345
0.000223583091128
0.000223076242951
0.000221995465261
0.000219864273372
0.000215917495631
0.000208886782875
0.000196648465998
0.000175742497201
0.000249760233671
0.000249949203481
0.00017634508308
0.000197183693027
0.000209135598027
0.000215878751451
0.000219615883283
0.000221607207614
0.000222618835384
0.000223107828255
0.000223335218057
0.00022343936736
0.000223489095872
0.000223516388337
0.000223535438489
0.00022355229821
0.000223569525934
0.000223588215901
0.000223608858406
0.000223631678929
0.000223656770198
0.000223684139876
0.00022371372543
0.000223745392839
0.000223778936179
0.000223814185433
0.000223859972574
0.000223914358565
0.000223966716569
0.000224008654195
0.0002240221611
0.000223968389457
0.000223768640606
0.000223268045836
0.000222189910094
0.000220056181185
0.000216101299431
0.000209054557415
0.000196792158534
0.000175834290076
0.000249778687754
0.000249958889422
0.000176364315301
0.000197199450078
0.000209146169164
0.000215885153428
0.000219619901571
0.000221610360617
0.000222622448377
0.000223112837976
0.000223342309652
0.000223449034875
0.000223501747914
0.000223532400349
0.000223555188338
0.00022357617833
0.000223597946737
0.000223621603008
0.000223647647611
0.000223676309691
0.000223707678234
0.000223741749148
0.000223778442253
0.000223817696304
0.000223861668033
0.000223924662616
0.000223991525817
0.000224060008464
0.000224126089967
0.000224181317517
0.000224207485401
0.000224165346723
0.000223975427046
0.000223481967298
0.000222407170064
0.000220271451219
0.000216308655883
0.000209245525511
0.000196957108741
0.000175940189763
0.000249798800573
0.000249972409916
0.000176384764477
0.000197216192481
0.000209157275327
0.000215891659129
0.000219623711679
0.00022161313353
0.000222625655453
0.000223117538649
0.000223349288104
0.000223458862543
0.00022351489797
0.000223549306418
0.000223576285029
0.000223601915945
0.000223628795922
0.000223658052307
0.000223690198179
0.000223725468122
0.000223763948445
0.000223805628399
0.000223850628435
0.000223909097072
0.000223981801976
0.000224059924145
0.000224141809715
0.000224225119246
0.000224305774967
0.000224375204055
0.000224414970442
0.000224385338279
0.0002242060744
0.000223720473191
0.000222649623428
0.0002205119785
0.000216541232114
0.000209461047949
0.000197144501716
0.00017606089517
0.000249820463141
0.000249987435081
0.000176406452383
0.000197234078322
0.000209169253714
0.000215898799672
0.000219628025419
0.000221616387437
0.000222629429048
0.000223122980922
0.000223357258597
0.0002234699962
0.000223529726223
0.00022356831993
0.000223599977257
0.000223630799218
0.000223663406676
0.000223698948634
0.000223737954078
0.000223780665966
0.00022382717846
0.00022387781711
0.000223949110423
0.000224031508988
0.000224120182515
0.000224214021003
0.00022431162418
0.000224410664603
0.000224506858715
0.000224591475701
0.000224645815203
0.000224629634621
0.000224461877586
0.000223984667368
0.000222918027011
0.000220778642402
0.000216799573221
0.000209701613142
0.000197355022124
0.000176196306145
0.000249844664127
0.000250003896741
0.000176429354225
0.000197253157478
0.000209182246526
0.000215906813903
0.000219633170104
0.000221620523399
0.000222634226794
0.000223129664689
0.00022336675357
0.000223482995916
0.000223546819243
0.000223590055561
0.000223626911279
0.000223663510887
0.000223702504278
0.000223745066825
0.000223791748428
0.000223842830183
0.000223898860812
0.000223981294447
0.000224072356803
0.000224171137176
0.000224276490649
0.000224387035617
0.000224501353829
0.000224617103521
0.000224729856522
0.000224830648469
0.000224900477512
0.000224898591567
0.000224743060432
0.000224274742596
0.00022321245109
0.000221071106612
0.000217083269967
0.000209966887963
0.000197588724825
0.000176345735855
0.000249873874893
0.000250021712936
0.000176453411425
0.000197273421165
0.000209196306577
0.00021591581602
0.000219639313017
0.000221625751679
0.000222640291639
0.000223137858061
0.000223378061771
0.000223498169595
0.000223566504922
0.00022361486378
0.000223657464082
0.000223700459558
0.000223746535175
0.000223796899374
0.000223852174049
0.000223915055398
0.000224004454691
0.000224103638121
0.000224211863088
0.000224327786424
0.0002244506246
0.000224578859806
0.000224710962725
0.000224844439109
0.00022497471504
0.000225092680609
0.000225178855007
0.000225191896657
0.000225049025841
0.000224589828443
0.000223531815526
0.000221388139352
0.00021739099602
0.000210255599757
0.000197844695623
0.000176510666054
0.000249907113109
0.00025004075708
0.000176478517784
0.000197294806735
0.00020921143208
0.000215925857677
0.000219646545933
0.000221632193952
0.00022264776646
0.000223147719625
0.000223391354629
0.000223515701053
0.000223588980768
0.000223642958509
0.00022369186991
0.000223741904792
0.000223795791044
0.000223854821896
0.00022392271031
0.000224018020184
0.000224124465702
0.000224241070384
0.000224366977633
0.000224501069981
0.000224642310888
0.000224789220832
0.000224940117709
0.00022509227581
0.000225241003023
0.000225376805383
0.000225479899945
0.000225508282891
0.000225378351677
0.000224928300268
0.0002238743712
0.000221727911287
0.00021772079224
0.00021056568404
0.000198113593704
0.000176698717955
0.000249945894496
0.000250060754053
0.000176504458099
0.000197317222021
0.000209227598668
0.000215936958127
0.00021965491829
0.000221639920411
0.000222656734755
0.000223159341441
0.000223406730291
0.000223535694174
0.000223614357537
0.000223674459739
0.000223730261436
0.00022378799689
0.000223850469796
0.000223921343691
0.000224021563837
0.000224134065328
0.00022425798826
0.000224392759646
0.000224537189344
0.000224690366979
0.000224851007753
0.000225017558463
0.000225188083371
0.000225359675875
0.000225527409316
0.000225681518676
0.000225801870793
0.000225845885169
0.000225729074282
0.000225288250288
0.000224238279194
0.000222088639756
0.000218070850518
0.000210895056726
0.00019839607029
0.000176903968132
0.000249992997193
0.000250081822409
0.000176531282708
0.000197340649171
0.000209244783642
0.000215949111975
0.000219664442653
0.000221648957409
0.000222667230092
0.000223172759614
0.000223424224571
0.000223558183536
0.000223642669062
0.000223709402205
0.000223772677106
0.000223838789659
0.000223911056088
0.000224014853264
0.000224132104361
0.000224262100303
0.000224404357289
0.000224557898095
0.000224721805973
0.000224894927437
0.000225075839912
0.000225262768333
0.000225453527023
0.000225644980253
0.000225832026964
0.000226004750718
0.000226142733795
0.000226202827863
0.000226099609651
0.000225668388537
0.000224622515295
0.000222469455017
0.000218440300384
0.000211242093011
0.000198692512615
0.000177121425343
0.000250059731375
0.000250103897403
0.000176558925761
0.000197364971983
0.000209262898092
0.000215962261404
0.000219675083831
0.000221659281053
0.000222679231166
0.000223187949334
0.000223443805446
0.000223583128117
0.000223673864872
0.000223747726682
0.00022381905504
0.000223894526269
0.000223997819617
0.000224118466476
0.000224253191381
0.000224401383392
0.000224562449522
0.000224735613125
0.000224919786327
0.000225113598783
0.000225315398012
0.000225523140481
0.000225734402382
0.000225945963345
0.000226152697908
0.000226344623113
0.000226501047074
0.000226578173502
0.000226489486045
0.000226068608909
0.0002250272028
0.000222870555367
0.000218829224042
0.000211600547967
0.000199008313017
0.000177348986581
0.000250141287116
0.000250126556406
0.000176587064193
0.000197389974691
0.000209281789606
0.00021597629357
0.000219686746207
0.000221670800783
0.000222692642199
0.000223204803226
0.000223465349674
0.000223610386368
0.000223707783723
0.000223789253943
0.000223869386109
0.000223970352188
0.000224093461323
0.000224231300287
0.000224383765975
0.000224550581779
0.00022473121867
0.000224924684462
0.000225129724446
0.000225344720224
0.00022556767499
0.000225796370244
0.00022602834792
0.000226260508087
0.000226487812388
0.000226700165748
0.000226876453155
0.000226972033461
0.000226899128758
0.000226489516951
0.000225453027059
0.000223292620835
0.000219238197316
0.000211975423869
0.000199337241176
0.00017758463557
0.000250231563156
0.000250149632781
0.000176615491555
0.000197415459671
0.000209301274172
0.00021599102759
0.000219699241994
0.0002216833135
0.000222707238415
0.000223223070821
0.000223488578212
0.000223639648488
0.000223744083903
0.000223833689466
0.000223932506233
0.000224057118832
0.000224196578298
0.000224351680916
0.000224522433013
0.000224708468314
0.000224909208284
0.000225123447312
0.00022534968064
0.000225585954138
0.000225830091965
0.000226079918418
0.00022633323682
0.000226587150846
0.000226836577991
0.000227071093514
0.000227268972838
0.000227384591561
0.00022732879793
0.000226931422189
0.000225900371905
0.000223736205724
0.000219667573657
0.000212368892759
0.000199680836457
0.000177828379661
0.000250329223685
0.000250173030609
0.000176644048722
0.000197441180403
0.000209321060816
0.000216006125639
0.000219712178139
0.000221696370062
0.000222722516315
0.000223242197463
0.00022351288716
0.000223670261724
0.000223782076873
0.000223881895223
0.000224008846434
0.000224149385758
0.000224305571031
0.000224478271901
0.000224667598762
0.000224873202456
0.000225094329922
0.000225329536622
0.000225576922631
0.000225834350081
0.000226099763144
0.000226371389406
0.000226647336074
0.000226924689709
0.000227198078828
0.00022745658278
0.000227677760936
0.000227814939674
0.000227777526041
0.000227393344555
0.000226368341307
0.000224200647348
0.000220113978914
0.00021278564303
0.000200043756421
0.000178087191121
0.000250435495565
0.000250196414863
0.000176672470521
0.000197466737704
0.00020934060006
0.000216020867618
0.000219724663673
0.00022170892762
0.000222737306367
0.0002232609101
0.00022353691567
0.000223700787283
0.000223820417296
0.000223946603706
0.000224088471478
0.00022424477805
0.000224417735607
0.000224608245137
0.00022481642819
0.000225041830201
0.000225283382573
0.000225539342191
0.000225807581097
0.000226086091969
0.000226373345897
0.000226667992965
0.000226968167751
0.000227270691641
0.000227569760655
0.000227853878308
0.000228099834805
0.000228259882585
0.000228241949552
0.00022787182208
0.000226853457637
0.000224682514553
0.000220577242969
0.000213218936094
0.000200422246394
0.000178360449495
0.000250550659121
0.00025021955391
0.000176700405901
0.000197491389599
0.000209358696362
0.000216033576033
0.000219734572136
0.000221718487515
0.000222748823921
0.000223276211298
0.000223557503713
0.000223727983536
0.000223863155087
0.000224010414199
0.000224167096918
0.00022433903701
0.000224528757507
0.000224737132976
0.000224964108092
0.000225209124166
0.000225470766856
0.000225746969968
0.000226035716036
0.000226335585536
0.000226645617485
0.000226964581215
0.000227290393334
0.000227619485593
0.000227945557007
0.000228256507431
0.000228528332413
0.000228712222123
0.000228714629677
0.000228359317211
0.000227348255828
0.00022517457819
0.00022105054239
0.000213661663576
0.000200808538507
0.000178638382899
0.000250671481571
0.000250242210744
0.000176727162836
0.000197513437152
0.000209372463195
0.000216040151646
0.000219736726459
0.00022171901924
0.000222750416492
0.000223281013857
0.00022356725614
0.000223744318813
0.00022390373481
0.000224064608539
0.000224235777452
0.000224423193414
0.000224629421499
0.000224855282911
0.000225100755402
0.000225364819761
0.000225645764443
0.000225941488447
0.000226250525606
0.000226572176801
0.000226905752094
0.000227249891484
0.000227602180063
0.000227958607986
0.000228312358779
0.000228650714631
0.000228948966635
0.000229157241575
0.000229180642231
0.000228841055245
0.000227838589046
0.000225662491216
0.00022152404391
0.0002141056561
0.000201197138439
0.000178917663627
0.000250796104934
0.000250263935046
0.000176751133786
0.000197528699584
0.000209374801465
0.000216030660341
0.000219718784368
0.000221696350941
0.000222726634955
0.000223259018431
0.000223549357232
0.000223740752018
0.000223917002598
0.000224090747768
0.000224275785767
0.000224478089751
0.000224700201962
0.000224942946017
0.000225205982059
0.000225487980314
0.000225786997764
0.000226101337147
0.00022643033342
0.000226773758198
0.000227130925954
0.000227500236322
0.000227878904986
0.000228262460951
0.000228643604112
0.000229009082686
0.000229333525423
0.0002295662283
0.000229611249943
0.000229288992056
0.000228298090952
0.00022612346403
0.000221978188469
0.000214536397088
0.000201579391883
0.000179196153415
0.000250923192947
0.000250283848635
0.000176768027343
0.000197526573014
0.000209348395801
0.000215981628472
0.000219652284318
0.000221618384851
0.000222642940643
0.000223174125298
0.00022346673042
0.000223676992119
0.000223863812573
0.000224049241504
0.000224247031141
0.000224463082031
0.000224699873356
0.000224958063649
0.000225236993565
0.000225534989988
0.000225850273261
0.00022618183812
0.000226529697554
0.000226893805485
0.000227273355767
0.000227666473347
0.000228070003783
0.000228479068852
0.000228885930084
0.000229276909725
0.000229626234348
0.000229882802638
0.000229950240917
0.000229648279671
0.000228674957542
0.000226511667716
0.000222372879739
0.000214924195321
0.000201936418347
0.000179464589728
0.00025104949662
0.000250300133367
0.000176766611169
0.000197481107038
0.000209252955352
0.000215840466365
0.000219475203253
0.000221416534917
0.000222426529771
0.000222950965653
0.000223245280265
0.000223469685882
0.000223664889003
0.000223860098494
0.00022406877642
0.000224296608065
0.000224545927344
0.000224817160907
0.000225109274063
0.000225420440454
0.000225749299135
0.00022609565558
0.000226459888427
0.000226841963612
0.000227240924516
0.000227654643849
0.000228079638023
0.000228510661881
0.000228939667424
0.000229352794295
0.000229724322166
0.000230003466098
0.000230094554194
0.000229818164075
0.000228873434457
0.000226739778167
0.000222633866721
0.000215211730256
0.000202229876871
0.000179705557187
0.000251170218435
0.00025030749294
0.000176717681429
0.000197331010851
0.000208999074881
0.000215495488279
0.000219059811117
0.000220952497853
0.000221932632322
0.000222441015305
0.000222739101845
0.000222965560481
0.000223165606603
0.000223367321922
0.000223583672946
0.000223820022416
0.000224078402898
0.000224358801458
0.000224659942772
0.000224980047489
0.000225318321933
0.000225675219011
0.000226051241668
0.000226446300419
0.000226859328211
0.000227287994227
0.000227728543329
0.000228175441928
0.000228620541976
0.000229050187188
0.000229439145847
0.000229738152068
0.000229854294199
0.000229611540304
0.000228713208445
0.000226640103744
0.000222612305896
0.000215276456956
0.000202373124007
0.000179876470282
0.000251274436145
0.000250292487975
0.000176550466297
0.000196941144523
0.00020840199003
0.000214726154202
0.000218161747559
0.000219967302934
0.000220893955889
0.000221372443475
0.000221666231609
0.000221888538028
0.000222088713697
0.000222292788575
0.000222512597009
0.000222753044977
0.000223015679189
0.000223300150973
0.000223604936631
0.000223928486178
0.000224270557196
0.000224631943502
0.000225013178881
0.0002254141126
0.000225833661817
0.000226269352121
0.000226717215881
0.00022717056647
0.000227622124777
0.000228059275393
0.000228458881899
0.000228774711685
0.000228918513159
0.000228721538129
0.000227895960579
0.000225931203967
0.000222053093518
0.000214903572087
0.000202207606627
0.000179895997765
0.000251340731434
0.000250218989849
0.000176100797533
0.000196029691407
0.000207101816114
0.000213122368269
0.000216340700207
0.000218003897319
0.000218844893462
0.000219275438752
0.000219551331703
0.000219761471273
0.000219955261871
0.000220155707297
0.000220373124883
0.000220611375579
0.000220871707246
0.000221153367727
0.000221454672927
0.000221774351991
0.00022211257295
0.000222470087629
0.000222847427952
0.000223244487325
0.0002236588291
0.000224088356566
0.000224529623875
0.000224978111915
0.000225425689007
0.000225860432777
0.000226262087551
0.0002265893172
0.000226762650311
0.000226625679906
0.000225906937162
0.000224113970652
0.000220487405927
0.000213674748485
0.000201396041695
0.00017954089976
0.00025131422346
0.000249998982189
0.000175016428044
0.000194049582073
0.000204442999863
0.000209968296219
0.000212849819094
0.000214301407894
0.000215019314193
0.000215385926402
0.000215629124313
0.000215819168601
0.000216000205898
0.000216190842629
0.000216399378643
0.000216628932254
0.000216880194838
0.000217152134799
0.000217442865259
0.000217751268256
0.000218077761281
0.0002184219706
0.000218781398352
0.000219158828921
0.000219555947963
0.000219969629563
0.000220394911925
0.000220825894231
0.000221256350129
0.000221676628821
0.000222069966739
0.000222402013073
0.000222605722945
0.000222543772363
0.000221971300734
0.000220427880972
0.000217186493236
0.000210921205927
0.000199377417163
0.000178450368955
0.000251086971249
0.000249423029537
0.00017257627345
0.000189973311348
0.000199256708207
0.000204030223678
0.000206430195702
0.000207594805493
0.000208153219535
0.000208435997851
0.000208631419263
0.00020879208814
0.000208951625019
0.000209123551001
0.00020931396046
0.00020952520846
0.000209757801503
0.000210010578062
0.000210281258016
0.000210564334643
0.000210860642509
0.000211173795106
0.000211505834835
0.000211853603516
0.000212219455422
0.000212601269283
0.000212993669243
0.000213390593601
0.000213787907032
0.000214177876655
0.000214548155682
0.000214873369804
0.00021510237085
0.000215123946757
0.000214733004187
0.000213521602683
0.000210823698744
0.000205382048543
0.000195033401565
0.0001758372441
0.00025041850899
0.000248069303956
0.00016739379723
0.000181907582455
0.000189453814948
0.00019314981102
0.000194910473535
0.000195720200498
0.000196093421666
0.000196288618613
0.00019643080563
0.000196556132232
0.000196686473782
0.000196830174043
0.000196991469538
0.000197172137784
0.000197373168253
0.000197585422544
0.000197811399864
0.000198053718599
0.000198311640499
0.000198583712632
0.000198869208877
0.000199166026074
0.000199478230391
0.000199808119511
0.000200146403853
0.0002004878327
0.000200829859314
0.000201168033191
0.000201494413824
0.000201792804259
0.000202030961036
0.00020213125792
0.000201943935186
0.000201143136469
0.000199171866854
0.00019491895391
0.000186447943488
0.000170324214585
0.000248894635232
0.000245495901104
0.00015773222996
0.000166973877249
0.000171732234417
0.000173895936631
0.000174842360154
0.000175242175266
0.000175415025278
0.000175507986167
0.000175581093406
0.000175649859731
0.000175723640066
0.000175805976978
0.000175898788786
0.000176001294734
0.00017611676353
0.000176256902051
0.000176415059285
0.000176585362418
0.000176766088627
0.000176957388705
0.000177158580698
0.000177365761658
0.000177581490912
0.000177815966995
0.00017805669935
0.000178314394932
0.000178580100523
0.000178846053611
0.000179106637185
0.000179351963325
0.000179565226424
0.000179705448401
0.000179688757446
0.000179317742839
0.000178231771389
0.000175658327538
0.000170237118948
0.000159925667022
0.000246095033913
0.000243972814571
0.000245458111128
0.00024777766615
0.000248936766013
0.000249406772315
0.00024958558662
0.000249653126423
0.000249681724443
0.000249698371223
0.00024971127598
0.000249723340716
0.000249735671988
0.000249748555504
0.00024976257805
0.000249782175823
0.000249809665275
0.000249843386327
0.000249885537581
0.000249939249728
0.000250005128568
0.000250081427254
0.000250165534618
0.000250255838425
0.000250351558376
0.000250454331817
0.000250561876877
0.000250671393463
0.00025078234783
0.000250893129699
0.000251002087027
0.000251107005278
0.000251203786341
0.000251283070853
0.000251325505244
0.000251280514791
0.00025104268298
0.00025037409216
0.000248855943528
0.000246049544312
0.000244146575196
0.000246861029418
0.000262808237035
0.000272520288017
0.000277255267754
0.000279394826828
0.00028031494662
0.000280696457878
0.000280858747792
0.000280936940506
0.000280986898604
0.000281028879877
0.000281070443848
0.000281113867971
0.000281159877629
0.000281208514888
0.000281257402364
0.000281307713496
0.000281359544253
0.000281412688072
0.000281466828336
0.000281521306204
0.000281576900969
0.00028163761062
0.00028169933246
0.000281761365088
0.000281823298817
0.000281884965665
0.000281945584679
0.000282004780271