/*--------------------------------*- C++ -*----------------------------------*\
| =========                 |                                                 |
| \\      /  F ield         | foam-extend: Open Source CFD                    |
|  \\    /   O peration     | Version:     4.1                                |
|   \\  /    A nd           | Web:         http://www.foam-extend.org         |
|    \\/     M anipulation  |                                                 |
\*---------------------------------------------------------------------------*/
FoamFile
{
    version     2.0;
    format      ascii;
    class       volScalarField;
    location    "0.5";
    object      p;
}
// * * * * * * * * * * * * * * * * * * * * * * * * * * * * * * * * * * * * * //

dimensions      [1 -1 -2 0 0 0 0];

internalField   nonuniform List<scalar> 
96000
(
5242.87067358
5242.80535441
5242.76701722
5242.68043705
5242.60646051
5242.50647029
5242.40470254
5242.28623051
5242.15869231
5242.0169035
5241.86277605
5241.69462294
5241.5128481
5241.31704744
5241.107483
5240.88437737
5240.6482626
5240.39984697
5240.13999325
5239.87002353
5239.59105465
5239.30460729
5239.01216669
5238.71602445
5238.41779795
5238.11968345
5237.82370286
5237.5319588
5237.24663841
5236.96952582
5236.70309837
5236.44805843
5236.2082719
5235.98111457
5235.77579011
5235.58041571
5235.42021796
5235.26267726
5235.16923766
5235.08057511
5242.79131712
5242.69416574
5242.63047032
5242.52389157
5242.43753621
5242.329043
5242.22049529
5242.09603716
5241.96228119
5241.81391463
5241.65254783
5241.47652738
5241.28620453
5241.08122575
5240.86187628
5240.62842837
5240.38146424
5240.12174022
5239.85018419
5239.56817738
5239.27693896
5238.97797545
5238.67294422
5238.36416042
5238.0533656
5237.74280885
5237.43460291
5237.13091976
5236.83400869
5236.54573462
5236.26861352
5236.0035193
5235.75442955
5235.51927334
5235.30793718
5235.10994876
5234.95358074
5234.80506375
5234.73444427
5234.65506819
5242.73472545
5242.61323171
5242.52500348
5242.39321571
5242.28661634
5242.16150978
5242.03870935
5241.90167427
5241.75564193
5241.59497631
5241.42066335
5241.2309352
5241.02595111
5240.8053479
5240.56939285
5240.31840147
5240.05300955
5239.77404303
5239.48255744
5239.17997075
5238.86768256
5238.54720907
5238.22062898
5237.89013614
5237.55779753
5237.22597526
5236.89700968
5236.5732789
5236.25726641
5235.95113245
5235.65767614
5235.37824692
5235.11716509
5234.87310189
5234.65625296
5234.45656702
5234.30246071
5234.15629772
5234.0905738
5234.00256942
5242.61695068
5242.47583521
5242.36232232
5242.20419426
5242.07376586
5241.92711763
5241.78413046
5241.62770078
5241.46190916
5241.28074697
5241.08461307
5240.87158646
5240.64164036
5240.39440213
5240.1301434
5239.84925345
5239.55246443
5239.24073188
5238.91529166
5238.57769414
5238.22957825
5237.87263112
5237.50925608
5237.14183587
5236.77276938
5236.40468731
5236.04025844
5235.68218799
5235.33330748
5234.99617286
5234.67397015
5234.36857291
5234.08475046
5233.82187088
5233.59069639
5233.38150798
5233.22376974
5233.07663944
5233.01623079
5232.92639838
5242.50609143
5242.35302866
5242.21952277
5242.03774824
5241.88340555
5241.71301246
5241.54645695
5241.3663307
5241.17597241
5240.96901896
5240.74537369
5240.50292714
5240.24147117
5239.96060501
5239.66060804
5239.34195035
5239.00548024
5238.65231415
5238.28388943
5237.90193007
5237.5083146
5237.10513904
5236.69505251
5236.280742
5235.86501521
5235.4508654
5235.04138237
5234.63969796
5234.2490937
5233.87260619
5233.5138926
5233.17534471
5232.86216216
5232.57411949
5232.32223449
5232.09643076
5231.92641414
5231.76847607
5231.70115563
5231.60170263
5242.35824802
5242.19694717
5242.04713847
5241.84401449
5241.66601223
5241.47011996
5241.2767016
5241.06817173
5240.8475061
5240.60806362
5240.349414
5240.06929187
5239.76736622
5239.44323076
5239.09720734
5238.72987828
5238.34224864
5237.93564263
5237.51174241
5237.07253334
5236.6202372
5236.15737473
5235.68692115
5235.21200454
5234.73591221
5234.26211492
5233.79421571
5233.33586756
5232.89088536
5232.46284176
5232.05590996
5231.67296492
5231.31962726
5230.99590214
5230.71307265
5230.46052829
5230.26844515
5230.09099464
5230.00912929
5229.89805292
5242.20029486
5242.03238375
5241.86857578
5241.64537997
5241.44385642
5241.22106113
5240.99818221
5240.75744978
5240.50176181
5240.22425292
5239.92429666
5239.59950688
5239.24948504
5238.8738423
5238.47297427
5238.04760274
5237.59892344
5237.12850541
5236.63831772
5236.13067362
5235.60820249
5235.07389269
5234.53115251
5233.98362106
5233.43514506
5232.88976477
5232.35168229
5231.82515609
5231.31461115
5230.82421144
5230.35869511
5229.92141265
5229.51842414
5229.14988035
5228.82739305
5228.53979756
5228.31801157
5228.1146788
5228.0133953
5227.88897634
5242.01480721
5241.84103704
5241.66485612
5241.4222935
5241.197036
5240.94569722
5240.69050897
5240.413465
5240.11760065
5239.79588088
5239.44760977
5239.07033118
5238.6636415
5238.22720628
5237.76153562
5237.26752729
5236.74661006
5236.20064415
5235.63194088
5235.0432132
5234.43756237
5233.81850188
5233.18997147
5232.55621064
5231.92171191
5231.29118269
5230.6695157
5230.06166306
5229.4727407
5228.90756612
5228.37149813
5227.86837685
5227.4047424
5226.98085573
5226.60876816
5226.27675512
5226.01680412
5225.78032617
5225.65399357
5225.5137523
5241.80982862
5241.6299051
5241.44150518
5241.1790225
5240.92895386
5240.64693843
5240.35637777
5240.03890453
5239.69781572
5239.32592211
5238.92254409
5238.4851916
5238.01350655
5237.50724143
5236.96705737
5236.39406279
5235.78995958
5235.1569437
5234.49772277
5233.81547235
5233.11382808
5232.39689499
5231.66923759
5230.93578092
5230.20175148
5229.47261883
5228.75406062
5228.05181586
5227.37178178
5226.71951014
5226.10106321
5225.52083241
5224.98593712
5224.49680499
5224.06612583
5223.68170106
5223.37700515
5223.10229623
5222.94781214
5222.79039879
5241.57887727
5241.3924055
5241.19163425
5240.90829199
5240.6319314
5240.31674991
5239.98742927
5239.62512014
5239.23347049
5238.80514257
5238.33953848
5237.83416526
5237.28875387
5236.70317553
5236.07827862
5235.41541837
5234.71661155
5233.9844373
5233.22205593
5232.43316907
5231.62201288
5230.79335721
5229.95248199
5229.10508925
5228.25723375
5227.41524743
5226.58569457
5225.77520322
5224.99055304
5224.23812517
5223.52478336
5222.85555159
5222.23823913
5221.67350195
5221.1748482
5220.72961864
5220.37312128
5220.05436403
5219.86770889
5219.69104331
5241.32349272
5241.12975054
5240.9157785
5240.60997765
5240.30525714
5239.95397577
5239.5821839
5239.17041752
5238.72272527
5238.23160486
5237.69657939
5237.11517068
5236.48722989
5235.81277287
5235.09286651
5234.32914665
5233.52398507
5232.68039067
5231.8020311
5230.89319612
5229.95879002
5229.00432375
5228.03588233
5227.06003824
5226.08377252
5225.11438354
5224.15943012
5223.2265403
5222.32348972
5221.45760114
5220.63665921
5219.86643023
5219.15555434
5218.50501359
5217.92934458
5217.41545806
5217.00085475
5216.63310803
5216.41122331
5216.21379822
5241.04116146
5240.83945965
5240.61133361
5240.28128619
5239.94588846
5239.55532887
5239.1371218
5238.67107158
5238.16166595
5237.6012171
5236.98939576
5236.32374919
5235.60427285
5234.83114893
5234.00569113
5233.12984804
5232.20638568
5231.23878901
5230.23128795
5229.18882239
5228.11703426
5227.02225445
5225.9114634
5224.79220063
5223.67247594
5222.5606631
5221.46542991
5220.39552298
5219.35983702
5218.36675996
5217.42512716
5216.54156634
5215.725694
5214.97891191
5214.31697954
5213.72636784
5213.2470891
5212.82505882
5212.56446362
5212.34456219
5240.73176713
5240.52134688
5240.27788529
5239.92155928
5239.55290896
5239.11967069
5238.65091692
5238.12561014
5237.54870373
5236.91229626
5236.21622105
5235.45805382
5234.637951
5233.75627819
5232.81462036
5231.81526849
5230.76142016
5229.65708151
5228.50709845
5227.31712266
5226.09360359
5224.84377212
5223.57559517
5222.29767787
5221.01916423
5219.74961628
5218.49893056
5217.27709775
5216.09426168
5214.96000849
5213.88436617
5212.87495756
5211.94253149
5211.08901402
5210.33159175
5209.65628393
5209.10593332
5208.62457344
5208.32207268
5208.07830681
5240.39435601
5240.17449575
5239.91448337
5239.52979036
5239.12521754
5238.64580388
5238.1222772
5237.53266016
5236.88239553
5236.16333925
5235.37549644
5234.51647023
5233.58659007
5232.58641863
5231.51783369
5230.38349623
5229.18707102
5227.93312927
5226.62718558
5225.27566444
5223.88589279
5222.46608217
5221.02527772
5219.57325028
5218.12038567
5216.67755019
5215.25599142
5213.8670727
5212.52232496
5211.23267425
5210.00948964
5208.8615259
5207.80082038
5206.82992985
5205.96767561
5205.19959196
5204.57164852
5204.02581159
5203.67810842
5203.40925013
5240.02881648
5239.79880096
5239.52097323
5239.10577746
5238.66255144
5238.1334182
5237.55085637
5236.89185838
5236.16237661
5235.35399425
5234.46689272
5233.49869808
5232.44992085
5231.32133146
5230.11511924
5228.8343405
5227.48316088
5226.0667589
5224.59136912
5223.06424845
5221.49367037
5219.88890772
5218.26017594
5216.61851198
5214.97565151
5213.34388014
5211.73592337
5210.16465291
5208.64312838
5207.18376367
5205.79943102
5204.50016763
5203.29944453
5202.20051188
5201.2239694
5200.3548909
5199.64272643
5199.02727971
5198.63101112
5198.33561031
5239.63511406
5239.39426739
5239.09737643
5238.649571
5238.16498023
5237.58261351
5236.93679271
5236.20339753
5235.38890862
5234.48460694
5233.49085209
5232.40528665
5231.22860753
5229.96180121
5228.60738496
5227.16883363
5225.65084549
5224.05924689
5222.40104167
5220.68437672
5218.9185397
5217.11394515
5215.2820707
5213.43531644
5211.58687474
5209.75057223
5207.94074054
5206.17189137
5204.45874597
5202.81533155
5201.25613592
5199.79259303
5198.43982656
5197.2019957
5196.10167705
5195.12355538
5194.32077457
5193.63080246
5193.182927
5192.86034582
5239.21372347
5238.96140297
5238.64422775
5238.161759
5237.63315195
5236.99412109
5236.28091849
5235.46823461
5234.56309463
5233.55644861
5232.44883403
5231.23790207
5229.92453906
5228.50995382
5226.99700567
5225.38960907
5223.69302454
5221.91376447
5220.05964883
5218.13976896
5216.1644914
5214.14545001
5212.09546729
5210.02839677
5207.95898655
5205.90271035
5203.87562552
5201.89402446
5199.97445008
5198.13271115
5196.38508483
5194.74457984
5193.2281228
5191.84086554
5190.60758133
5189.51255622
5188.61292432
5187.84365915
5187.34145553
5186.99116169
5238.76548263
5238.50109084
5238.16245838
5237.64336952
5237.06821065
5236.36923373
5235.58469733
5234.68803367
5233.68682672
5232.57166908
5231.3432743
5229.99929338
5228.54080323
5226.9692393
5225.28781485
5223.50090247
5221.61435129
5219.63539457
5217.5727105
5215.43638225
5213.23791228
5210.99022299
5208.70756829
5206.40535026
5204.09998069
5201.80870045
5199.54942044
5197.3403445
5195.19997506
5193.14606117
5191.19686569
5189.36714059
5187.67571811
5186.12876904
5184.75349337
5183.53375016
5182.53109757
5181.67788517
5181.11858909
5180.74014026
5238.2916482
5238.01461184
5237.65346118
5237.09596475
5236.47189399
5235.70989042
5234.85029644
5233.86523183
5232.76285198
5231.53336748
5230.17766359
5228.69338108
5227.08178608
5225.34454267
5223.48522696
5221.50868484
5219.42137679
5217.23128814
5214.94799372
5212.58261087
5210.14783396
5207.65795708
5205.12874999
5202.57724913
5200.02163217
5197.48102432
5194.97531467
5192.52474226
5190.14988905
5187.87055791
5185.70710946
5183.6761549
5181.79865444
5180.08198053
5178.55598596
5177.2040747
5176.09254246
5175.1510465
5174.53213868
5174.12548072
5237.7942053
5237.50410392
5237.11938181
5236.52175481
5235.84653607
5235.01864129
5234.08054376
5233.00300546
5231.79475173
5230.44558429
5228.95655154
5227.32527236
5225.55319877
5223.64222377
5221.59629314
5219.42073943
5217.122656
5214.71081101
5212.19571097
5209.58954375
5206.90626105
5204.16161141
5201.37294556
5198.55900245
5195.7398036
5192.93644181
5190.17087958
5187.46550815
5184.84312712
5182.32574433
5179.93597166
5177.69242983
5175.61837294
5173.72249674
5172.03751179
5170.54639656
5169.32051584
5168.28674677
5167.60604904
5167.1714499
5237.2751312
5236.97150084
5236.56237956
5235.92318334
5235.1948148
5234.29851717
5233.27888995
5232.10527971
5230.78697832
5229.31335459
5227.68561312
5225.90134068
5223.96217222
5221.87022995
5219.62983599
5217.24682232
5214.72893589
5212.08575611
5209.32874654
5206.47119612
5203.52837001
5200.51753044
5197.4576418
5194.3692054
5191.27416761
5188.19568229
5185.15789031
5182.18544958
5179.30350126
5176.53639161
5173.90912794
5171.44248473
5169.16216689
5167.07831234
5165.22668858
5163.58988499
5162.24464709
5161.11505509
5160.37070257
5159.90875343
5236.736944
5236.41950786
5235.98513322
5235.30311682
5234.52006402
5233.55330768
5232.44961729
5231.17688444
5229.74497425
5228.14280515
5226.37173301
5224.42930371
5222.31733218
5220.03816963
5217.59651952
5214.99872281
5212.25319374
5209.37034232
5206.36260234
5203.24437861
5200.03231412
5196.74522757
5193.40372135
5190.03012323
5186.64837683
5183.28377686
5179.96273275
5176.71226993
5173.55998206
5170.53267404
5167.65788128
5164.95866485
5162.46333486
5160.18358475
5158.15844299
5156.37013034
5154.90108503
5153.67256882
5152.86305677
5152.37459055
5236.18294648
5235.85133897
5235.39134049
5234.66560406
5233.82661034
5232.78768984
5231.59787554
5230.22354766
5228.67514867
5226.94112231
5225.02296736
5222.91817787
5220.6287437
5218.15724242
5215.50876013
5212.6901508
5209.71050126
5206.5810769
5203.3152687
5199.92861918
5196.43923441
5192.86747994
5189.23562204
5185.56787017
5181.89022142
5178.23017527
5174.61648309
5171.07862233
5167.64673551
5164.35019366
5161.21918003
5158.27916658
5155.56121506
5153.0786825
5150.87405496
5148.92920199
5147.33255123
5146.0025257
5145.12667102
5144.61280486
5235.61709851
5235.27120274
5234.78505009
5234.01490743
5233.11904646
5232.0067835
5230.7293845
5229.25169409
5227.58472239
5225.71642129
5223.64842376
5221.37816227
5218.90779612
5216.24012575
5213.3806192
5210.33664066
5207.1179583
5203.736718
5200.20720651
5196.54618021
5192.77326757
5188.91031528
5184.9812973
5181.01234311
5177.03154181
5173.06864287
5169.15479395
5165.32199075
5161.60300398
5158.02986497
5154.63550829
5151.44793286
5148.50108609
5145.81008894
5143.42106922
5141.31555953
5139.58825476
5138.1547577
5137.21178775
5136.67375318
5235.04313077
5234.68287668
5234.17044185
5233.35559031
5232.40243907
5231.21623106
5229.85046838
5228.26843342
5226.48169501
5224.47769943
5222.25820609
5219.82057827
5217.16714
5214.30091121
5211.22773663
5207.95549098
5204.49463145
5200.85819804
5197.06125327
5193.12195817
5189.06139453
5184.90284839
5180.67203961
5176.39703577
5172.10803534
5167.83706069
5163.6176892
5159.48448236
5155.47290051
5151.61771124
5147.95469048
5144.51446289
5141.33398019
5138.43022407
5135.85311378
5133.58388018
5131.72366647
5130.18537788
5129.17501326
5128.61412048
5234.46556624
5234.09098834
5233.55228631
5232.69278442
5231.68237689
5230.42222841
5228.96804359
5227.28152627
5225.37478849
5223.23476089
5220.86332222
5218.2577614
5215.42056329
5212.35496237
5209.06717581
5205.56559038
5201.86136635
5197.9683206
5193.90238123
5189.68321365
5185.33315593
5180.87698675
5176.34217433
5171.75871847
5167.15892013
5162.57707647
5158.04920785
5153.61246742
5149.30504581
5145.16449792
5141.22951798
5137.53343416
5134.11630573
5130.99705536
5128.22953583
5125.79466257
5123.80023577
5122.1563495
5121.07872051
5120.4965796
5233.8890737
5233.50029919
5232.93562493
5232.0319358
5230.96484633
5229.6314278
5228.08954698
5226.29931704
5224.27337752
5221.9981385
5219.47559418
5216.70295729
5213.68287128
5210.41877916
5206.91726971
5203.18723743
5199.24055269
5195.09157262
5190.75753034
5186.25929567
5181.62039113
5176.86714633
5172.02875268
5167.13710767
5162.22658716
5157.33374336
5152.49703024
5147.75619519
5143.1521713
5138.72533494
5134.51735089
5130.56431384
5126.90947388
5123.57376463
5120.61507758
5118.01404541
5115.88522189
5114.1358724
5112.99143452
5112.38963569
5233.31852012
5232.91577811
5232.32570014
5231.37872616
5230.25609924
5228.85078627
5227.22275975
5225.33053608
5223.18726819
5220.77884754
5218.10738539
5215.17002094
5211.96955469
5208.5096375
5204.79722648
5200.84171707
5196.65561413
5192.25384726
5187.65504712
5182.88104762
5177.95662782
5172.90961147
5167.77087268
5162.57415415
5157.35585818
5152.1547497
5147.01168155
5141.96896659
5137.07027773
5132.35880913
5127.87923644
5123.67046037
5119.7789828
5116.22779438
5113.07889795
5110.31264001
5108.05038577
5106.19651896
5104.98639115
5104.36594321
5232.75913757
5232.34273284
5231.7281092
5230.73920105
5229.56277762
5228.08767518
5226.37590461
5224.38438307
5222.12676852
5219.58844384
5216.77164676
5213.67345032
5210.296815
5206.64560075
5202.72712694
5198.55127802
5194.13104644
5189.48224119
5184.62453998
5179.58078846
5174.37699375
5169.04241855
5163.60954389
5158.11388902
5152.59381462
5147.09023047
5141.64632152
5136.30692042
5131.11838798
5126.12676325
5121.37969699
5116.91893443
5112.79427402
5109.03078947
5105.69463945
5102.76583325
5100.37255096
5098.41610902
5097.14194728
5096.50424831
5232.21571777
5231.78606542
5231.14812615
5230.11915412
5228.89132349
5227.34929073
5225.55703415
5223.46987724
5221.10198985
5218.43826801
5215.48109834
5212.22750025
5208.68060528
5204.84448149
5200.72680048
5196.33789439
5191.69121719
5186.80355252
5181.69546501
5176.39072358
5170.91655275
5165.30358679
5159.5858237
5153.80046985
5147.98775241
5142.19063052
5136.45452963
5130.82672661
5125.35623444
5120.09184507
5115.08420425
5110.37789012
5106.02602118
5102.05574313
5098.53737674
5095.45048224
5092.92997764
5090.87379
5089.5376866
5088.88360315
5231.6940664
5231.25162053
5230.59192107
5229.52523937
5228.249016
5226.6436463
5224.77500453
5222.59683237
5220.12384062
5217.34047076
5214.24929639
5210.84730195
5207.13780652
5203.12508381
5198.81714462
5194.22471767
5189.36178724
5184.24599333
5178.89872283
5173.34462454
5167.61207142
5161.73297623
5155.74275854
5149.68020082
5143.58727884
5137.50887919
5131.49257481
5125.5879679
5119.84662697
5114.32004655
5109.06184208
5104.11939047
5099.54915788
5095.38034668
5091.68745489
5088.44943405
5085.80785226
5083.65663628
5082.2621284
5081.59258147
5231.19772119
5230.74312957
5230.06377648
5228.96238684
5227.64147517
5225.97707414
5224.03690789
5221.77317045
5219.20118713
5216.30499226
5213.08740778
5209.54540847
5205.68252234
5201.50322558
5197.01585126
5192.23148411
5187.16469407
5181.83385807
5176.26105197
5170.4718573
5164.49565328
5158.36554291
5152.11824771
5145.79400041
5139.43639462
5133.09211223
5126.81072485
5120.64403386
5114.64605321
5108.87088495
5103.37504854
5098.20866454
5093.43156691
5089.07493203
5085.21741627
5081.83707078
5079.08192657
5076.84092666
5075.39134621
5074.70580468
5230.73426219
5230.26823465
5229.5716502
5228.43905159
5227.07771234
5225.3592229
5223.35313026
5221.01013332
5218.34629505
5215.34529495
5212.01028872
5208.33826442
5204.33298533
5199.99912158
5195.3453045
5190.38295403
5185.1272312
5179.59712594
5173.81535398
5167.8083648
5161.60642941
5155.24373377
5148.75817135
5142.1912812
5135.58812271
5128.9970106
5122.46935205
5116.05898718
5109.82224132
5103.81569236
5098.09870972
5092.72408896
5087.75510356
5083.22484493
5079.21625808
5075.70621814
5072.84912736
5070.52760546
5069.02996663
5068.3289137
5230.3028508
5229.82667299
5229.1160795
5227.95657827
5226.55963638
5224.79244899
5222.72644346
5220.31092405
5217.56290317
5214.46575488
5211.02308872
5207.23191731
5203.09627159
5198.62099993
5193.81500851
5188.69005661
5183.26184228
5177.54986696
5171.57745422
5165.3717897
5158.96399886
5152.38917748
5145.68628612
5138.89800597
5132.07070544
5125.25415747
5118.50142358
5111.86819208
5105.4129357
5099.19453191
5093.27511555
5087.71000042
5082.56597209
5077.87783548
5073.7329994
5070.1066457
5067.15942798
5064.7657898
5063.22519075
5062.50591517
5229.91754958
5229.43299725
5228.71177075
5227.53022737
5226.10285743
5224.29285661
5222.17361905
5219.69318946
5216.8698205
5213.68659858
5210.14773424
5206.25025015
5201.99848035
5197.39742158
5192.45623381
5187.18701091
5181.60591038
5175.73288007
5169.59177173
5163.21041535
5156.6206951
5149.85845899
5142.963575
5135.9796983
5128.95432126
5121.93846172
5114.98661514
5108.15609248
5101.50730327
5095.10120928
5089.00261996
5083.2691963
5077.97142655
5073.14571469
5068.8844649
5065.16095264
5062.14230968
5059.69300738
5058.12259735
5057.38578081
5229.56553121
5229.07568185
5228.34760169
5227.14931266
5225.69647826
5223.84921478
5221.68309801
5219.14504744
5216.25493733
5212.99550497
5209.37172678
5205.3805791
5201.02673809
5196.31530901
5191.25570354
5185.86032472
5180.1457108
5174.13219116
5167.84409778
5161.30978305
5154.56177365
5147.63661464
5140.57487187
5133.42102623
5126.22353106
5119.0344681
5111.90950405
5104.90732475
5098.09002988
5091.52033486
5085.26555361
5079.38532372
5073.95398332
5069.00914354
5064.64894185
5060.84433087
5057.76958763
5055.27763102
5053.68634716
5052.9291926
5229.27973921
5228.79057456
5228.05942351
5226.85080725
5225.37789027
5223.49969616
5221.29421593
5218.70742362
5215.76128213
5212.43803808
5208.74361158
5204.67483206
5200.23675247
5195.43452929
5190.27781635
5184.77928115
5178.95578878
5172.82798374
5166.42058333
5159.76236668
5152.88631409
5145.82955116
5138.63327092
5131.3423655
5124.00611854
5116.67743299
5109.41287793
5102.27216437
5095.31879472
5088.61686917
5082.2359936
5076.23735025
5070.69934032
5065.66038566
5061.2253937
5057.36308909
5054.2554535
5051.74419609
5050.1498096
5049.37427298
5229.02168915
5228.5372677
5227.80261754
5226.58696687
5225.0967443
5223.19217553
5220.9536351
5218.3260023
5215.33357077
5211.95778856
5208.20562525
5204.07363842
5199.56730828
5194.69182247
5189.45708958
5183.87602266
5177.96577929
5171.74727301
5165.24555599
5158.4897404
5151.513192
5144.35334768
5137.05196594
5129.65432559
5122.20995782
5114.77271251
5107.39959563
5100.1510603
5093.09153726
5086.28592691
5079.80560096
5073.71240339
5068.0885396
5062.97221452
5058.47609203
5054.56691455
5051.43711097
5048.92060073
5047.33674278
5046.5491526
5228.86454033
5228.39838774
5227.66344077
5226.44835602
5224.94641333
5223.02260526
5220.76005787
5218.1026551
5215.07735675
5211.66458294
5207.87241248
5203.69701207
5199.14428005
5194.21936847
5188.93237348
5183.29646435
5177.32904557
5171.0511833
5164.4881564
5157.66931756
5150.62825811
5143.40263463
5136.03440827
5128.56935716
5121.05688221
5113.55129208
5106.11008009
5098.79393937
5091.66785899
5084.79709121
5078.25433366
5072.10140506
5066.42393124
5061.25889556
5056.72647511
5052.79057219
5049.65240199
5047.14256066
5045.56321921
5044.75657708
5228.74007399
5228.27690929
5227.5285813
5226.30883931
5224.79551757
5222.85908156
5220.58259224
5217.90898225
5214.8664032
5211.43451335
5207.62208797
5203.42514196
5198.849998
5193.90186722
5188.59119079
5182.93134562
5176.94000975
5170.63843702
5164.05212678
5157.21057388
5150.14751821
5142.90067786
5135.5119322
5128.02700904
5120.49569826
5112.9717055
5105.51241717
5098.1782606
5091.03414251
5084.14480499
5077.58290818
5071.40900227
5065.70940641
5060.5184728
5055.95936653
5051.99361288
5048.82816041
5046.29829627
5044.6965093
5043.83817788
5079.73783417
5079.68424088
5079.65524726
5079.5735878
5079.50240048
5079.40417026
5079.3036822
5079.18647439
5079.06022657
5078.91987897
5078.7673056
5078.60083424
5078.42082964
5078.22687718
5078.01921559
5077.7980511
5077.56389984
5077.31744562
5077.05956795
5076.79149159
5076.5145691
5076.22983648
5075.93924632
5075.64483777
5075.34830154
5075.05180583
5074.75738313
5074.46714205
5074.18327999
5073.90760952
5073.64262043
5073.38908104
5073.15083981
5072.92536735
5072.72167334
5072.52798315
5072.36873112
5072.21140223
5072.11498965
5072.02381489
5079.67022732
5079.60296329
5079.56187191
5079.46872247
5079.38784157
5079.281919
5079.17408249
5079.0501289
5078.91667783
5078.76882427
5078.60805777
5078.43278651
5078.24328396
5078.03918696
5077.82074169
5077.58820336
5077.34213233
5077.08326501
5076.81254459
5076.53128347
5076.24088063
5075.94244439
5075.63803557
5075.32977158
5075.01945262
5074.70931599
5074.4014969
5074.09819089
5073.80167272
5073.5138765
5073.23734778
5072.97313929
5072.72520366
5072.49187431
5072.28263011
5072.08746286
5071.93241982
5071.78382967
5071.70214245
5071.60489186
5079.62296239
5079.54481544
5079.49715454
5079.38965772
5079.29431149
5079.17442594
5079.05318465
5078.91679351
5078.77087962
5078.61049404
5078.43655642
5078.247396
5078.04308428
5077.82324194
5077.58808626
5077.33790905
5077.07331957
5076.79512544
5076.50438762
5076.20248405
5075.89082945
5075.57084189
5075.24475732
5074.91467768
5074.58269697
5074.25118276
5073.92249649
5073.59904793
5073.28335067
5072.97764311
5072.68474457
5072.40616985
5072.14609546
5071.90341678
5071.68734416
5071.48757956
5071.32872228
5071.1722638
5071.07773136
5070.95629128
5079.5101106
5079.42116707
5079.35905108
5079.23269496
5079.11798357
5078.97877294
5078.83814618
5078.68247826
5078.51660077
5078.33542533
5078.13936235
5077.92661983
5077.69708182
5077.45035192
5077.18664267
5076.90631286
5076.61006352
5076.29883154
5075.97384654
5075.6366265
5075.28877761
5074.93203074
5074.56879614
5074.20143613
5073.83236868
5073.46423629
5073.09973209
5072.7415982
5072.39269825
5072.05566438
5071.73368116
5071.42874231
5071.14534462
5070.88289345
5070.65076845
5070.43868713
5070.2717274
5070.10851896
5070.01115593
5069.8786591
5079.40204772
5079.30389999
5079.22745515
5079.08184062
5078.94618302
5078.78481317
5078.62121314
5078.44187862
5078.25116908
5078.04381797
5077.81981981
5077.57722422
5077.3157396
5077.03493666
5076.73503023
5076.41645484
5076.08002466
5075.72683584
5075.35831066
5074.97614826
5074.58221703
5074.17864026
5073.7680623
5073.35317454
5072.93679931
5072.52194924
5072.11174026
5071.70934412
5071.31807332
5070.94103371
5070.58186031
5070.24302642
5069.9293841
5069.6406609
5069.38637496
5069.15592579
5068.97471442
5068.79911358
5068.69331699
5068.5507446
5079.2560249
5079.15045258
5079.06023363
5078.89538663
5078.73760681
5078.55152972
5078.36127075
5078.15336673
5077.93197695
5077.69167151
5077.43216627
5077.15137533
5076.84888743
5076.52426268
5076.1777534
5075.80990202
5075.42167705
5075.01438079
5074.58967804
5074.14953672
5073.69617528
5073.23213338
5072.76038985
5072.28408223
5071.80651667
5071.33118866
5070.86173145
5070.4018423
5069.95536912
5069.52595356
5069.11774148
5068.73368394
5068.37904566
5068.05381743
5067.76784968
5067.51025727
5067.30718848
5067.11336924
5066.99518062
5066.84292973
5079.09942796
5078.98657616
5078.88307186
5078.69884037
5078.5180597
5078.30525153
5078.08538614
5077.84492389
5077.5880252
5077.30910335
5077.00770705
5076.68164081
5076.33042449
5075.95363129
5075.55158275
5075.1249569
5074.67491153
5074.20299314
5073.71115387
5073.20169589
5072.67724981
5072.14081982
5071.59582469
5071.04591986
5070.49497538
5069.94706266
5069.40641928
5068.87735355
5068.36432966
5067.87158893
5067.40385264
5066.96457327
5066.55949849
5066.18887548
5065.86305109
5065.57091036
5065.33967654
5065.12290339
5064.9896453
5064.82882678
5078.91530439
5078.79572342
5078.67986338
5078.47627482
5078.27170854
5078.03014274
5077.77759127
5077.50034214
5077.20272163
5076.87901074
5076.5286965
5076.14951558
5075.74097842
5075.30270696
5074.83513213
5074.33910473
5073.81601391
5073.26769707
5072.69645044
5072.10498036
5071.49639278
5070.87421762
5070.24241154
5069.60523599
5068.96721239
5068.33308573
5067.70779068
5067.09633734
5066.50388972
5065.93535729
5065.39610349
5064.8901162
5064.42369527
5063.99734779
5063.62205507
5063.28647011
5063.01919426
5062.77277708
5062.61952543
5062.4480168
5078.71172067
5078.58485118
5078.45646184
5078.23264217
5078.00291655
5077.73024583
5077.44180266
5077.12356592
5076.78012417
5076.40562535
5075.99956706
5075.55965032
5075.08542273
5074.57658754
5074.03372195
5073.45788484
5072.85073746
5072.21445334
5071.55172703
5070.86573141
5070.16011028
5069.43898765
5068.70695054
5067.96895205
5067.23025353
5066.49636884
5065.7730249
5065.06602807
5064.38133451
5063.72460626
5063.10193657
5062.51791988
5061.97951503
5061.48755915
5061.05387338
5060.66696556
5060.35724476
5060.07635764
5059.90060635
5059.71803295
5078.48232058
5078.3478162
5078.20670015
5077.96162162
5077.70513618
5077.3987739
5077.07097955
5076.70730542
5076.31267774
5075.88111017
5075.41216813
5074.90354593
5074.35486964
5073.76595588
5073.13756419
5072.47099818
5071.76823337
5071.03182732
5070.26492902
5069.47124099
5068.65501138
5067.8210325
5066.97461223
5066.1214866
5065.2677515
5064.41979016
5063.58422364
5062.76775694
5061.97724026
5061.21918457
5060.50051189
5059.82650696
5059.20489853
5058.6369198
5058.13540852
5057.68875189
5057.32953619
5057.00842827
5056.80646509
5056.61096437
5078.22859032
5078.08568528
5077.93101588
5077.66306388
5077.37770849
5077.03467877
5076.66378077
5076.25001468
5075.79868708
5075.30366008
5074.76460192
5074.17921703
5073.5472409
5072.86862951
5072.14435654
5071.37600453
5070.56590362
5069.71704226
5068.83307947
5067.91830906
5066.97765136
5066.016644
5065.04140537
5064.05854799
5063.07510051
5062.09841969
5061.1361288
5060.19594195
5059.28571649
5058.41292407
5057.58543284
5056.80932712
5056.09324359
5055.43891164
5054.8603982
5054.34602445
5053.93096187
5053.5647779
5053.3339533
5053.12452575
5077.94802625
5077.79604219
5077.62690395
5077.33430377
5077.01774583
5076.6348464
5076.21686933
5075.74815367
5075.23442088
5074.66936119
5074.05276995
5073.38237231
5072.6580367
5071.87988095
5071.04912135
5070.16765197
5069.23819717
5068.26422302
5067.24995349
5066.20033623
5065.12103325
5064.01840685
5062.89947638
5061.77182746
5060.64352389
5059.52300483
5058.41900991
5057.34038059
5056.29610294
5055.29473129
5054.34520751
5053.4545349
5052.63240129
5051.88113177
5051.21622306
5050.62595199
5050.14844694
5049.73200132
5049.46923351
5049.24445449
5077.64046591
5077.47860895
5077.29384569
5076.97457406
5076.6242262
5076.19803395
5075.72881276
5075.20013757
5074.6181688
5073.97639834
5073.27476192
5072.51100898
5071.68515745
5070.79750451
5069.84953384
5068.84348126
5067.78250314
5066.67058871
5065.51258093