/*--------------------------------*- C++ -*----------------------------------*\
| =========                 |                                                 |
| \\      /  F ield         | foam-extend: Open Source CFD                    |
|  \\    /   O peration     | Version:     4.1                                |
|   \\  /    A nd           | Web:         http://www.foam-extend.org         |
|    \\/     M anipulation  |                                                 |
\*---------------------------------------------------------------------------*/
FoamFile
{
    version     2.0;
    format      ascii;
    class       volScalarField;
    location    "0.5";
    object      pd;
}
// * * * * * * * * * * * * * * * * * * * * * * * * * * * * * * * * * * * * * //

dimensions      [1 -1 -2 0 0 0 0];

internalField   nonuniform List<scalar> 
96000
(
5324.473409
5324.40808638
5324.36976495
5324.28319961
5324.20922368
5324.10922003
5324.0074382
5323.8889552
5323.76140964
5323.61961598
5323.46548408
5323.29732519
5323.11554878
5322.91974715
5322.71018183
5322.48707567
5322.25096025
5322.0025437
5321.74268893
5321.47271788
5321.19374783
5320.90729954
5320.61485814
5320.31871538
5320.02048855
5319.72237386
5319.42639315
5319.13464908
5318.84932862
5318.57221586
5318.30578848
5318.05074931
5317.81096382
5317.58380915
5317.37849158
5317.183122
5317.02292661
5316.86538531
5316.7719452
5316.68331407
5324.39404956
5324.29690311
5324.23322972
5324.12666465
5324.04030617
5323.93179924
5323.82323696
5323.69876814
5323.56500524
5323.41663366
5323.25526247
5323.07923823
5322.8889125
5322.68393196
5322.46458155
5322.23113297
5321.98416802
5321.72444284
5321.45288544
5321.17087721
5320.87963739
5320.5806727
5320.27564069
5319.96685645
5319.65606149
5319.3455048
5319.03729891
5318.73361575
5318.43670446
5318.14843
5317.87130868
5317.6062152
5317.35712803
5317.12197622
5316.91064506
5316.71266029
5316.55629304
5316.40777339
5316.33715375
5316.25781014
5324.33747497
5324.21599295
5324.12778949
5323.99601572
5323.88941357
5323.76429441
5323.64148059
5323.50443578
5323.35839734
5323.19772739
5323.02341067
5322.83367929
5322.62869289
5322.40808831
5322.17213252
5321.92114049
5321.65574772
5321.37678009
5321.08529325
5320.78270529
5320.47041601
5320.14994172
5319.82336114
5319.49286811
5319.16052955
5318.82870745
5318.49974207
5318.17601124
5317.85999835
5317.55386372
5317.26040684
5316.98097786
5316.71989797
5316.47583843
5316.25899343
5316.0593094
5315.90520105
5315.75903068
5315.69329763
5315.60532188
5324.21971789
5324.07861362
5323.96512579
5323.80701279
5323.67658284
5323.52992311
5323.3869234
5323.23048468
5323.0646876
5322.88352176
5322.68738475
5322.47435549
5322.24440754
5321.99716832
5321.7329091
5321.4520187
5321.15522899
5320.84349547
5320.51805415
5320.1804556
5319.83233887
5319.47539121
5319.11201594
5318.74459577
5318.3755295
5318.00744771
5317.64301899
5317.28494841
5316.9360673
5316.59893161
5316.27672779
5315.97133018
5315.68750912
5315.4246327
5315.19346137
5314.98427342
5314.82653035
5314.67938891
5314.6189677
5314.52915696
5324.10886381
5323.95580924
5323.82232864
5323.64057025
5323.48622748
5323.31582314
5323.14925544
5322.96912047
5322.77875712
5322.57180054
5322.34815267
5322.10570392
5321.84424647
5321.56337967
5321.26338252
5320.94472464
5320.60825405
5320.25508718
5319.88666156
5319.50470138
5319.11108533
5318.7079095
5318.29782297
5317.88351272
5317.46778634
5317.05363696
5316.6441542
5316.24246964
5315.85186464
5315.47537574
5315.11666055
5314.77811181
5314.46493028
5314.17689055
5313.9250085
5313.69920351
5313.52917874
5313.37122647
5313.30389259
5313.20445829
5323.96101338
5323.79972118
5323.64993856
5323.44683146
5323.26882943
5323.07292593
5322.87949518
5322.67095644
5322.45028575
5322.21084028
5321.95218828
5321.67206411
5321.370137
5321.04600107
5320.69997779
5320.33264868
5319.94501863
5319.53841188
5319.11451067
5318.67530057
5318.22300364
5317.76014088
5317.2896873
5316.81477089
5316.33867885
5315.86488213
5315.39698346
5314.93863512
5314.49365172
5314.0656059
5313.65867137
5313.27572427
5312.92238687
5312.59866464
5312.31583828
5312.06329264
5311.87120086
5311.69373474
5311.61185285
5311.50079996
5323.8030518
5323.63515144
5323.4713704
5323.24819174
5323.04666828
5322.82386156
5322.60096989
5322.36022837
5322.10453526
5321.82702338
5321.52706475
5321.20227266
5320.85224983
5320.47660675
5320.07573856
5319.65036709
5319.20168733
5318.73126831
5318.24107962
5317.73343487
5317.21096342
5316.67665331
5316.13391305
5315.58638167
5315.0379058
5314.4925254
5313.95444247
5313.42791586
5312.91736952
5312.42696704
5311.96144711
5311.52416131
5311.12117194
5310.75263119
5310.43014807
5310.14255167
5309.92075729
5309.71740859
5309.61610695
5309.49171584
5323.61756363
5323.44380242
5323.26764894
5323.02510352
5322.79984592
5322.54849546
5322.29329415
5322.01624085
5321.7203717
5321.39864903
5321.05037555
5320.67309601
5320.26640586
5319.82997024
5319.36429917
5318.8702904
5318.34937268
5317.8034062
5317.23470229
5316.64597413
5316.04032301
5315.42126223
5314.79273173
5314.15897097
5313.52447237
5312.89394284
5312.27227503
5311.66442107
5311.07549653
5310.51031872
5309.97424707
5309.47112337
5309.00748779
5308.5836019
5308.2115165
5307.87950261
5307.61954347
5307.38304954
5307.25670071
5307.11648717
5323.4125849
5323.23267119
5323.04429874
5322.78183324
5322.53176436
5322.24973695
5321.95916307
5321.64168041
5321.30058677
5320.92869039
5320.52531009
5320.08795661
5319.61627125
5319.1100059
5318.56982153
5317.99682654
5317.3927228
5316.75970635
5316.1004848
5315.41823371
5314.71658908
5313.99965565
5313.27199814
5312.5385415
5311.80451214
5311.07537946
5310.35682068
5309.65457447
5308.97453801
5308.32226293
5307.70381195
5307.12357823
5306.58868183
5306.09955023
5305.66887184
5305.28444603
5304.97974182
5304.70501676
5304.55051785
5304.39313147
5323.18163348
5322.99517247
5322.79442848
5322.51110335
5322.23474248
5321.91954877
5321.59021484
5321.22789627
5320.83624166
5320.40791108
5319.94230502
5319.43693035
5318.89151853
5318.30594012
5317.68104326
5317.01818286
5316.31937552
5315.58720017
5314.82481813
5314.03593071
5313.224774
5312.39611797
5311.55524263
5310.70784994
5309.85999451
5309.01800817
5308.18845505
5307.37796243
5306.59331
5305.84087855
5305.12753204
5304.45829655
5303.84098266
5303.27624602
5302.77759368
5302.33236262
5301.97585647
5301.65708301
5301.47041313
5301.29377473
5322.92624952
5322.73251679
5322.51857188
5322.21278814
5321.90806739
5321.55677364
5321.18496843
5320.77319259
5320.32549541
5319.83437247
5319.29934533
5318.71793534
5318.0899939
5317.41553696
5316.69563091
5315.93191105
5315.12674896
5314.28315356
5313.40479291
5312.49595714
5311.56155041
5310.60708381
5309.6386423
5308.66279831
5307.68653269
5306.71714368
5305.76218991
5304.82929917
5303.92624649
5303.06035415
5302.23940723
5301.46917404
5300.75829608
5300.10775601
5299.53208892
5299.01820027
5298.60358777
5298.23582481
5298.01392323
5297.81652803
5322.64391691
5322.44222357
5322.21412468
5321.88409441
5321.54869652
5321.15812452
5320.73990406
5320.27384433
5319.76443384
5319.20398273
5318.59215975
5317.926512
5317.20703527
5316.4339116
5315.60845416
5314.7326111
5313.80914822
5312.84155061
5311.8340484
5310.79158182
5309.71979302
5308.62501292
5307.51422186
5306.39495924
5305.27523468
5304.16342179
5303.06818812
5301.99828027
5300.9625921
5299.96951118
5299.02787341
5298.14430804
5297.32843343
5296.58165238
5295.91972115
5295.32910703
5294.84981908
5294.42777241
5294.16715926
5293.94728983
5322.33451934
5322.12410769
5321.88067336
5321.52436461
5321.15571425
5320.72246362
5320.25369646
5319.72838016
5319.15146899
5318.51505933
5317.81898263
5317.06081442
5316.24071134
5315.35903884
5314.41738143
5313.41802956
5312.36418065
5311.25984106
5310.10985692
5308.91988014
5307.69636041
5306.44652876
5305.17835189
5303.9004347
5302.62192119
5301.35237315
5300.10168688
5298.87985294
5297.69701443
5296.56275707
5295.48710961
5294.47769656
5293.54526798
5292.69175146
5291.93433012
5291.25901993
5290.70866021
5290.22728382
5289.92476782
5289.68103236
5321.99710505
5321.7772534
5321.5172684
5321.13259278
5320.72802012
5320.24859416
5319.72505412
5319.13542759
5318.48515825
5317.76609991
5316.97825577
5316.11922875
5315.1893484
5314.1891773
5313.12059277
5311.98625535
5310.7898296
5309.53588691
5308.22994213
5306.87842003
5305.48864782
5304.06883702
5302.62803258
5301.17600526
5299.7231408
5298.2803052
5296.85874593
5295.469826
5294.12507557
5292.83542039
5291.61223063
5290.46426265
5289.40355346
5288.43266318
5287.57041149
5286.80232561
5286.17437311
5285.62851972
5285.28080325
5285.01197438
5321.63156288
5321.40155567
5321.12375538
5320.70857714
5320.26535152
5319.73620602
5319.15363087
5318.49462339
5317.76513699
5316.95675272
5316.06964995
5315.10145456
5314.05267722
5312.92408817
5311.71787636
5310.43709776
5309.08591765
5307.66951461
5306.19412365
5304.66700202
5303.09642352
5301.49166076
5299.86292899
5298.22126526
5296.57840503
5294.94663356
5293.33867634
5291.76740453
5290.24587712
5288.78650829
5287.40217044
5286.10290138
5284.90217569
5283.80324367
5282.82670385
5281.95762326
5281.24544988
5280.6299869
5280.23370614
5279.93833439
5321.23785807
5320.9970193
5320.70015577
5320.25236799
5319.76777786
5319.18539892
5318.53956483
5317.80616014
5316.99166666
5316.0873631
5315.09360708
5314.00804092
5312.8313617
5311.56455579
5310.21013998
5308.77158871
5307.25360002
5305.66200031
5304.00379398
5302.28712819
5300.52129075
5298.7166962
5296.884822
5295.03806802
5293.18962647
5291.35332407
5289.54349191
5287.77464118
5286.06149323
5284.41807494
5282.85887333
5281.39532426
5280.04255739
5278.80472726
5277.70441095
5276.72628734
5275.92349798
5275.23351
5274.78562274
5274.46307094
5320.81646506
5320.56415204
5320.2470042
5319.76455321
5319.23594704
5318.59690399
5317.88368809
5317.07099467
5316.16585011
5315.15920223
5314.05158649
5312.84065382
5311.52729072
5310.11270594
5308.59975823
5306.99236151
5305.29577642
5303.51651536
5301.66239868
5299.74251806
5297.76724009
5295.74819885
5293.69821659
5291.63114624
5289.56173609
5287.50546015
5285.47837478
5283.49677222
5281.5771956
5279.73545266
5277.98781973
5276.34731088
5274.83085351
5273.44359715
5272.21031489
5271.11528839
5270.21564851
5269.44636815
5268.94415278
5268.59388879
5320.36822164
5320.10383697
5319.76523183
5319.24616083
5318.67100308
5317.972014
5317.1874643
5316.29079102
5315.28957944
5314.17442
5312.94602404
5311.60204242
5310.14355218
5308.57198865
5306.89056468
5305.10365222
5303.21710039
5301.23814271
5299.17545771
5297.03912883
5294.84065857
5292.59296946
5290.31031517
5288.00809739
5285.7027281
5283.41144754
5281.1521667
5278.94308977
5276.80271897
5274.74880043
5272.79959748
5270.96987153
5269.27844881
5267.73150085
5266.35622659
5265.13648314
5264.13382312
5263.28059644
5262.72128938
5262.34287001
5319.89438465
5319.61735497
5319.25623157
5318.6987531
5318.07468374
5317.31266803
5316.45306075
5315.4679864
5314.36560189
5313.13611564
5311.78041053
5310.29612734
5308.68453227
5306.94728924
5305.08797398
5303.11143196
5301.02412324
5298.83403368
5296.55073842
5294.18535496
5291.75057796
5289.26070142
5286.7314947
5284.17999441
5281.62437783
5279.08376943
5276.57805879
5274.12748511
5271.75263141
5269.47329459
5267.30984072
5265.27888583
5263.40138529
5261.68471263
5260.15872018
5258.80680909
5257.69526978
5256.75376044
5256.13484307
5255.7282135
5319.39693925
5319.10684401
5318.72214911
5318.12454022
5317.44932318
5316.62141631
5315.68330551
5314.60575727
5313.39749887
5312.04832982
5310.55929584
5308.92801589
5307.15594228
5305.24496777
5303.19903756
5301.0234839
5298.72540007
5296.31355429
5293.79845353
5291.19228587
5288.50900329
5285.76435412
5282.97568876
5280.16174618
5277.34254776
5274.53918634
5271.77362337
5269.06825057
5266.44586785
5263.92847987
5261.53870291
5259.29516079
5257.22110408
5255.3252296
5253.64024772
5252.14913241
5250.92324558
5249.88946393
5249.20875559
5248.77418672
5318.87786246
5318.57423783
5318.16514379
5317.52596587
5316.79759937
5315.90128969
5314.88164922
5313.70802888
5312.38972283
5310.91609749
5309.28835487
5307.50408165
5305.56491318
5303.47297145
5301.23257795
5298.84956444
5296.3316778
5293.68849734
5290.93148715
5288.07393666
5285.13111102
5282.12027192
5279.06038387
5275.97194805
5272.87691087
5269.79842604
5266.76063368
5263.78819192
5260.90624137
5258.13912741
5255.51185938
5253.04521592
5250.76489842
5248.68104627
5246.82942603
5245.19262241
5243.84738009
5242.71777683
5241.97341195
5241.51149614
5318.33967228
5318.02224177
5317.58789444
5316.90589653
5316.12284613
5315.15607775
5314.05237411
5312.77963108
5311.34771617
5309.74554549
5307.97447212
5306.03204212
5303.92007066
5301.64090858
5299.19925917
5296.60146285
5293.8559335
5290.97308157
5287.96534131
5284.84711785
5281.63505391
5278.34796802
5275.00646267
5271.63286554
5268.25111985
5264.88651972
5261.56547512
5258.31501192
5255.16272221
5252.13540906
5249.26061299
5246.5613963
5244.06606693
5241.78631972
5239.76118208
5237.9728712
5236.50382274
5235.27529689
5234.4657761
5233.97734047
5317.78567185
5317.45406988
5316.99409876
5316.268381
5315.42939001
5314.39045746
5313.20062989
5311.82629173
5310.27788794
5308.54386004
5306.62570376
5304.52091358
5302.23147948
5299.75997882
5297.11149744
5294.29288852
5291.31323886
5288.18381428
5284.91800618
5281.53135709
5278.04197285
5274.47021937
5270.83836313
5267.17061267
5263.49296417
5259.8329174
5256.21922476
5252.68136376
5249.24947556
5245.95292774
5242.82191211
5239.88189832
5237.16394777
5234.68141855
5232.47679766
5230.53194877
5228.93529489
5227.6052604
5226.72940056
5226.21556109
5317.21982155
5316.87393074
5316.38780544
5315.61768162
5314.7218237
5313.60954865
5312.33213633
5310.8544355
5309.18745889
5307.31915617
5305.25115733
5302.9808951
5300.51052902
5297.84285947
5294.98335385
5291.9393758
5288.72069361
5285.33945349
5281.8099423
5278.1489165
5274.37600462
5270.51305402
5266.58403828
5262.61508516
5258.63428341
5254.67138373
5250.75753466
5246.92473113
5243.20574369
5239.63260201
5236.23824074
5233.05066482
5230.10381951
5227.4128255
5225.02381248
5222.91831106
5221.19100381
5219.75749879
5218.81452974
5218.27651448
5316.6458515
5316.28560183
5315.77319434
5314.95836178
5314.00521387
5312.81899369
5311.45321762
5309.87117208
5308.08442857
5306.0804313
5303.86093674
5301.42330804
5298.76986981
5295.90364198
5292.8304684
5289.55822347
5286.09736442
5282.46093143
5278.66398707
5274.72469285
5270.66413065
5266.50558704
5262.27477981
5257.99977617
5253.71077565
5249.43980109
5245.22042933
5241.08722117
5237.07563773
5233.22044996
5229.55742201
5226.11719376
5222.9367136
5220.0329605
5217.45585618
5215.18663153
5213.32641896
5211.78812658
5210.77776581
5210.21688907
5316.06828454
5315.69371067
5315.15503601
5314.29555322
5313.28514928
5312.0249885
5310.5707902
5308.88426214
5306.97751904
5304.83748972
5302.46604974
5299.86048801
5297.02329006
5293.95769002
5290.66990454
5287.16832024
5283.46409696
5279.5710517
5275.50511331
5271.28594726
5266.93589218
5262.47972523
5257.94491352
5253.3614577
5248.76165971
5244.17981687
5239.65194743
5235.21520369
5230.90778012
5226.76723236
5222.83224715
5219.13616328
5215.7190372
5212.59979149
5209.83228309
5207.39741259
5205.40298975
5203.7591048
5202.681478
5202.09935587
5315.49178952
5315.10301875
5314.53837187
5313.63470194
5312.5676163
5311.23418528
5309.69229087
5307.90205003
5305.8761051
5303.6008642
5301.07831837
5298.3056806
5295.28559484
5292.02150357
5288.51999542
5284.78996458
5280.84328095
5276.69430177
5272.36026117
5267.86202878
5263.22312729
5258.46988398
5253.63149073
5248.73984628
5243.82932708
5238.93648312
5234.09976706
5229.35893032
5224.7549054
5220.32806412
5216.12007882
5212.16704226
5208.51220322
5205.17650138
5202.21782858
5199.61679915
5197.48797866
5195.73863038
5194.59419241
5193.99241681
5314.92123359
5314.51849489
5313.92844421
5312.9814895
5311.85886657
5310.45354087
5308.82550057
5306.93326586
5304.78999264
5302.38156972
5299.71010596
5296.77274066
5293.57227458
5290.11235837
5286.39994904
5282.44444137
5278.25833994
5273.85657468
5269.25777662
5264.48378023
5259.55936352
5254.51234836
5249.37361027
5244.17689412
5238.95859856
5233.75748674
5228.6144174
5223.57170226
5218.67302867
5213.96153696
5209.48196277
5205.27318786
5201.38171145
5197.83052919
5194.68164282
5191.91539718
5189.65314658
5187.79927873
5186.58915192
5185.9687274
5314.36184853
5313.94544654
5313.33085007
5312.3419612
5311.16554166
5309.69042624
5307.97864161
5305.98710884
5303.72948881
5301.19116159
5298.37436291
5295.2761656
5291.89953038
5288.24831732
5284.32984552
5280.15399856
5275.73376883
5271.08496604
5266.22726735
5261.18351884
5255.97972769
5250.64515584
5245.21228328
5239.71662876
5234.19655221
5228.69296738
5223.24905819
5217.90966475
5212.72111401
5207.72949079
5202.98242174
5198.52165361
5194.39699127
5190.63351278
5187.29737584
5184.36858614
5181.97531199
5180.01887361
5178.74471608
5178.1070366
5313.81842494
5313.38877562
5312.75086329
5311.72191043
5310.49408328
5308.95203721
5307.15976617
5305.07259775
5302.70470438
5300.04097969
5297.08380849
5293.83020958
5290.28331476
5286.44719237
5282.32951329
5277.9406094
5273.29393477
5268.40627298
5263.29818823
5257.99344999
5252.51928414
5246.90632347
5241.18856205
5235.40320574
5229.59048878
5223.79337582
5218.05726067
5212.42944949
5206.958958
5201.69457279
5196.68691628
5191.98059245
5187.62872553
5183.65845327
5180.14010618
5177.05323016
5174.53273669
5172.47655887
5171.14046232
5170.48639664
5313.2967691
5312.85432684
5312.19465392
5311.12799117
5309.85177067
5308.24638724
5306.37773039
5304.19954611
5301.72654813
5298.94317513
5295.85199912
5292.45000385
5288.74050854
5284.72778723
5280.41985014
5275.82742601
5270.96449904
5265.84870813
5260.5014411
5254.94734839
5249.21480101
5243.33570854
5237.34549183
5231.28293702
5225.19001973
5219.11161312
5213.09530078
5207.19068966
5201.44934941
5195.92275531
5190.6645423
5185.7220901
5181.15185896
5176.98305044
5173.29017985
5170.05217836
5167.41061217
5165.25940811
5163.86490906
5163.19538011
5312.80042165
5312.34583166
5311.66650492
5310.56513391
5309.24422453
5307.57980926
5305.6396273
5303.37587692
5300.80388712
5297.90768902
5294.69010272
5291.14810248
5287.28521655
5283.10592142
5278.61855005
5273.83418646
5268.7674001
5263.43656851
5257.86376825
5252.07457951
5246.0983797
5239.96827285
5233.72097952
5227.39673536
5221.03913273
5214.69484277
5208.41344927
5202.24675357
5196.24876391
5190.47358506
5184.97774638
5179.8113623
5175.03426575
5170.67764239
5166.82014125
5163.43981076
5160.6846888
5158.44370328
5156.9941326
5156.30860792
5312.33696088
5311.87093419
5311.17437437
5310.04179445
5308.68045713
5306.96195296
5304.95584429
5302.61283384
5299.948988
5296.94798502
5293.61297706
5289.94095181
5285.93567333
5281.60181175
5276.94799813
5271.98565173
5266.7299336
5261.19983487
5255.41806958
5249.41108472
5243.20915441
5236.84646436
5230.3609042
5223.79401641
5217.19086002
5210.59974261
5204.07207535
5197.66170087
5191.42494291
5185.41839023
5179.70140593
5174.3267853
5169.35780101
5164.82756113
5160.8189837
5157.30896005
5154.45189418
5152.1303883
5150.63275933
5149.9317222
5311.90554805
5311.42937003
5310.71880056
5309.5593177
5308.16237747
5306.39517503
5304.32915333
5301.91362033
5299.16559139
5296.06843998
5292.62577188
5288.83459949
5284.69895475
5280.22368576
5275.41769803
5270.29275095
5264.86454239
5259.15257357
5253.18016832
5246.97451096
5240.56672556
5233.99190828
5227.28902145
5220.50074792
5213.67344622
5206.85688761
5200.10414686
5193.47090402
5187.01563607
5180.79722894
5174.87781032
5169.31269538
5164.16867312
5159.4805497
5155.33572635
5151.70939802
5148.76220155
5146.36857846
5144.82799001
5144.10872875
5311.52024526
5311.03569157
5310.31448879
5309.13296294
5307.70559369
5305.89557797
5303.7763243
5301.29588153
5298.47250419
5295.28927786
5291.75041152
5287.85292673
5283.60115788
5279.00010199
5274.05891853
5268.78970115
5263.20860713
5257.33558345
5251.19448268
5244.81313541
5238.22342297
5231.46119089
5224.56631162
5217.58244297
5210.55706373
5203.54119055
5196.58933836
5189.75880919
5183.11000311
5176.70390436
5170.60531293
5164.87188956
5159.57412702
5154.74842739
5150.48720003
5146.76371423
5143.74508892
5141.29580116
5139.72540132
5138.9885968
5311.16822406
5310.67837285
5309.95031454
5308.75204148
5307.29920535
5305.45192733
5303.28579448
5300.7477307
5297.85761173
5294.59817453
5290.97439401
5286.98324568
5282.62940577
5277.91797978
5272.85837923
5267.4630066
5261.7483998
5255.73488779
5249.44680249
5242.91249641
5236.16449565
5229.23934422
5222.17760762
5215.02376563
5207.82626884
5200.63719818
5193.51222574
5186.51004035
5179.69273916
5173.12303429
5166.86824631
5160.98801575
5155.55668375
5150.61186637
5146.25168903
5142.44709758
5139.37237079
5136.88042749
5135.2891505
5134.53200766
5310.88242811
5310.39325974
5309.66212779
5308.45352438
5306.98060263
5305.10239342
5302.89689681
5300.31009109
5297.36394055
5294.04069137
5290.34626224
5286.27748197
5281.83940367
5277.03718403
5271.88047651
5266.38194805
5260.55846364
5254.43066735
5248.02327593
5241.36506859
5234.48902609
5227.43227329
5220.23600072
5212.94509721
5205.60884619
5198.28015656
5191.01559937
5183.87488041
5176.92150166
5170.21956937
5163.83869099
5157.84005146
5152.30205407
5147.26311801
5142.82814621
5138.96585914
5135.85823846
5133.34699068
5131.75260986
5130.9770852
5310.62437123
5310.13994371
5309.4053085
5308.18966704
5306.69943653
5304.79485118
5302.55629348
5299.92864677
5296.93620573
5293.56041783
5289.80825164
5285.67626401
5281.16993519
5276.29445334
5271.05972671
5265.47866763
5259.5684334
5253.34993678
5246.84822987
5240.09242586
5233.11589027
5225.95605719
5218.65468297
5211.25704717
5203.81268036
5196.37543114
5189.00230926
5181.75376947
5174.69424164
5167.88862725
5161.40829972
5155.31510946
5149.6912602
5144.57495241
5140.07884758
5136.16968667
5133.03989456
5130.52339284
5128.9395391
5128.15196062
5310.46721818
5310.00105988
5309.26611781
5308.05103947
5306.54908566
5304.62525978
5302.36269451
5299.70527703
5296.67996695
5293.26718612
5289.47501598
5285.29961784
5280.74688958
5275.82198281
5270.53499422
5264.89909371
5258.9316834
5252.65382793
5246.09081348
5239.27199049
5232.23094833
5225.00533682
5217.63711816
5210.17207398
5202.6596023
5195.15400814
5187.71279051
5180.39664622
5173.27056457
5166.39979501
5159.85703714
5153.70411478
5148.02665506
5142.86163595
5138.32923243
5134.39334376
5131.25518391
5128.74534931
5127.16600914
5126.35938077
5310.34278678
5309.87961795
5309.13129432
5307.91155229
5306.3982208
5304.46177083
5302.18526813
5299.51164775
5296.46906164
5293.03716751
5289.22474017
5285.02779401
5280.45265172
5275.50452492
5270.19385424
5264.53401612
5258.542689
5252.24112615
5245.65482618
5238.81328431
5231.75024081
5224.50341107
5217.11467142
5209.62975147
5202.09844313
5194.57445007
5187.11515841
5179.78099806
5172.6368777
5165.74754037
5159.18564587
5153.01174582
5147.31216022
5142.12123888
5137.56214521
5133.59640123
5130.43095641
5127.90109648
5126.29931071
5125.44099548
5324.54604041
5324.49244702
5324.46351207
5324.38188734
5324.31069037
5324.21241909
5324.11188773
5323.99464702
5323.8683775
5323.72801467
5323.57542765
5323.40894293
5323.22893081
5323.03497553
5322.82731117
5322.60614484
5322.37199131
5322.12553413
5321.86765321
5321.59957291
5321.32264676
5321.0379112
5320.7473186
5320.45290852
5320.15637149
5319.85987547
5319.56545282
5319.27521166
5318.99134923
5318.71567845
5318.45069012
5318.19715387
5317.95891588
5317.73345632
5317.52978072
5317.3361051
5317.17686095
5317.01953349
5316.92312693
5316.83205212
5324.47843528
5324.41121574
5324.37019246
5324.27707476
5324.19617866
5324.09021545
5323.98233802
5323.85835472
5323.72488418
5323.57701606
5323.41623686
5323.24095481
5323.05144415
5322.84734202
5322.62889401
5322.39635336
5322.15027952
5321.89140858
5321.62068392
5321.33941851
5321.04901156
5320.75057196
5320.44616094
5320.13789567
5319.82757617
5319.51743947
5319.2096204
5318.90631404
5318.60979503
5318.32199785
5318.04546918
5317.78126422
5317.53333929
5317.30002508
5317.09079628
5316.8956399
5316.74059957
5316.59200186
5316.51030273
5316.41314019
5324.43123453
5324.35314207
5324.30555272
5324.19808972
5324.1027315
5323.98280987
5323.8615324
5323.72511558
5323.57918525
5323.41878754
5323.24483938
5323.05567016
5322.85135228
5322.6315064
5322.39634869
5322.14616962
5321.88157764
5321.60338027
5321.31263884
5321.01073177
5320.69907419
5320.37908443
5320.05299858
5319.72291848
5319.3909379
5319.05942413
5318.73073814
5318.40728934
5318.09159101
5317.78588183
5317.4929823
5317.21440945
5316.954342
5316.71167504
5316.49561433
5316.29585465
5316.13698939
5315.98050906
5315.88594784
5315.76456836
5324.31842704
5324.22953605
5324.16749341
5324.0411747
5323.9264556
5323.78721276
5323.64655295
5323.49086181
5323.32497001
5323.1437844
5322.94771272
5322.73496302
5322.50542017
5322.25868771
5321.99497711
5321.71464592
5321.41839448
5321.10715967
5320.78217158
5320.44494866
5320.09709751
5319.7403492
5319.37711399
5319.00975405
5318.64068714
5318.27255539
5317.90805147
5317.54991704
5317.20101534
5316.86397867
5316.54199296
5316.23705417
5315.9536617
5315.69122048
5315.4591047
5315.24702327
5315.08004667
5314.9168041
5314.81940135
5314.68695186
5324.2103701
5324.11227012
5324.03590074
5323.89032718
5323.75466516
5323.59326492
5323.4296331
5323.25027643
5323.05955367
5322.85219359
5322.62818792
5322.38558626
5322.12409777
5321.84329306
5321.54338591
5321.22480965
5320.88837781
5320.5351866
5320.16665877
5319.78449399
5319.39056104
5318.98698336
5318.57640522
5318.16151789
5317.74514342
5317.33029406
5316.92008525
5316.5176882
5316.12641489
5315.74937123
5315.39019368
5315.05135807
5314.73771948
5314.44900513
5314.19472721
5313.96427471
5313.78304041
5313.6073977
5313.50155495
5313.35902813
5324.06432679
5323.95880312
5323.86866282
5323.70385944
5323.54607669
5323.35996966
5323.16967889
5322.96175279
5322.74035012
5322.50003619
5322.24052403
5321.95972766
5321.65723648
5321.33261046
5320.98610085
5320.61824891
5320.23002252
5319.82272409
5319.39801889
5318.9578754
5318.50451244
5318.0404698
5317.56872621
5317.09241906
5316.61485418
5316.13952664
5315.67006922
5315.21017846
5314.76370162
5314.33428038
5313.92606207
5313.54200083
5313.18736466
5312.86214453
5312.57618449
5312.31858794
5312.11549397
5311.92162889
5311.8033893
5311.65119007
5323.9077094
5323.79491009
5323.69148713
5323.50730064
5323.32651731
5323.11367884
5322.8937812
5322.6532966
5322.39638496
5322.1174548
5321.81605184
5321.48998046
5321.13876085
5320.7619667
5320.35991839
5319.93329213
5319.48324541
5319.01132485
5318.51948298
5318.01002249
5317.48557453
5316.94914375
5316.40414851
5315.85424407
5315.30330014
5314.75538803
5314.21474453
5313.68567676
5313.17264834
5312.67990068
5312.21215645
5311.77287166
5311.36779741
5310.99718157
5310.67136455
5310.37921971
5310.14796023
5309.93113955
5309.79782785
5309.63706664
5323.72357687
5323.60405189
5323.48827448
5323.2847313
5323.08016209
5322.83856543
5322.58598125
5322.30870949
5322.01107565
5321.68735647
5321.33703571
5320.95784891
5320.54930839
5320.11103643
5319.64346233
5319.14743506
5318.6243429
5318.07602351
5317.5047739
5316.9133011
5316.30471161
5315.68253564
5315.05072945
5314.41355428
5313.77553117
5313.14140516
5312.51611003
5311.90465493
5311.31220256
5310.74366231
5310.20439894
5309.69840391
5309.23198176
5308.8056409
5308.43035567
5308.0947663
5307.82746453
5307.58099919
5307.42769186
5307.25624494
5323.51999486
5323.39318124
5323.26487467
5323.04110012
5322.81137103
5322.53866883
5322.2501925
5321.9319329
5321.58847784
5321.21397082
5320.80790627
5320.36798398
5319.8937531
5319.38491773
5318.84205334
5318.26621655
5317.65906777
5317.02278091
5316.36005135
5315.67405291
5314.96842969
5314.24730627
5313.51526903
5312.7772709
5312.03857282
5311.30468848
5310.5813446
5309.87434604
5309.1896475
5308.53291086
5307.91023071
5307.32620495
5306.78779715
5306.29584651
5305.86216797
5305.47525503
5305.16550789
5304.88457229
5304.70876493
5304.52625549
5323.29059812
5323.15614735
5323.01511374
5322.77008002
5322.51359073
5322.20719652
5321.87936869
5321.51567157
5321.12103072
5320.68945513
5320.2205071
5319.71188042
5319.16320158
5318.57428762
5317.94589694
5317.27933124
5316.576565
5315.84015651
5315.07325478
5314.27956371
5313.46333221
5312.62935256
5311.78293222
5310.92980695
5310.07607232
5309.22811102
5308.3925439
5307.57607544
5306.78555358
5306.02748914
5305.30880556
5304.63479086
5304.01317849
5303.44520367
5302.94369859
5302.49703604
5302.1377935
5301.8166369
5301.61461881
5301.41918271
5323.03686613
5322.89401314
5322.739426
5322.47151873
5322.18615939
5321.84309748
5321.47216581
5321.05837663
5320.60703596
5320.11200118
5319.57293735
5318.98754866
5318.35557105
5317.6769598
5316.95268746
5316.18433541
5315.37423304
5314.52536917
5313.64140343
5312.72663036
5311.78597094
5310.82496281
5309.84972418
5308.86686717
5307.88342008
5306.90673913
5305.94444712
5305.00425773
5304.09402687
5303.22122536
5302.39372282
5301.61760701
5300.90151928
5300.2471904
5299.66868215
5299.15430181
5298.73921197
5298.37297923
5298.14210083
5297.93273875
5322.75629501
5322.60436261
5322.43530683
5322.14275159
5321.82618987
5321.44325824
5321.02524746
5320.55650874
5320.04276305
5319.47769585
5318.86109956
5318.19069872
5317.46636191
5316.68820652
5315.85744764
5314.97597805
5314.04652171
5313.07254502
5312.05827274
5311.00865314
5309.92934863
5308.82672152
5307.70779101
5306.58014243
5305.45183918
5304.33131992
5303.22732367
5302.14869107
5301.10440772
5300.10302663
5299.15349107
5298.2628081
5297.44067041
5296.68940377
5296.02449937
5295.43422129
5294.95668879
5294.54019439
5294.27737328
5294.05266117
5322.44872539
5322.28692007
5322.10223974
5321.78301347
5321.43266223
5321.00643794
5320.53718313
5320.00848501
5319.42650358
5318.78472603
5318.083085
5317.31932923
5316.49347686
5315.60582453
5314.65785465
5313.65180189
5312.59082221
5311.47890522