/*--------------------------------*- C++ -*----------------------------------*\
| =========                 |                                                 |
| \\      /  F ield         | foam-extend: Open Source CFD                    |
|  \\    /   O peration     | Version:     4.1                                |
|   \\  /    A nd           | Web:         http://www.foam-extend.org         |
|    \\/     M anipulation  |                                                 |
\*---------------------------------------------------------------------------*/
FoamFile
{
    version     2.0;
    format      ascii;
    class       volScalarField;
    location    "0.4";
    object      alpha1;
}
// * * * * * * * * * * * * * * * * * * * * * * * * * * * * * * * * * * * * * //

dimensions      [0 0 0 0 0 0 0];

internalField   nonuniform List<scalar> 
96000
(
0.999998751564
0.999998683151
0.99999883601
0.999998986558
0.999999015345
0.999998929297
0.999998826696
0.999998746764
0.999998696346
0.999998664882
0.999998638476
0.999998610783
0.999998589374
0.999998579776
0.999998570223
0.999998563211
0.999998555794
0.999998547113
0.999998539432
0.999998531047
0.999998521769
0.999998513176
0.999998507261
0.999998504012
0.999998502298
0.999998501849
0.999998502279
0.999998504705
0.999998507144
0.999998508608
0.999998511728
0.999998520696
0.999998530811
0.999998565535
0.999998606666
0.999998640924
0.999998652955
0.999998639144
0.99999863109
0.999998927924
0.9999986859
0.999998717642
0.999998919965
0.999999068001
0.999999070961
0.99999898006
0.999998875944
0.999998799833
0.999998751837
0.999998719405
0.999998691824
0.999998667025
0.999998646249
0.999998631255
0.999998621014
0.99999861273
0.999998603983
0.999998593465
0.999998581796
0.999998570488
0.999998560259
0.999998551801
0.999998546139
0.999998543297
0.999998543205
0.999998545172
0.999998547411
0.999998549959
0.999998551219
0.999998551433
0.999998553095
0.999998561647
0.999998583734
0.99999861784
0.999998655373
0.999998679373
0.999998677308
0.999998651766
0.999998641616
0.99999894385
0.999998846277
0.999998930694
0.999999164119
0.999999314478
0.999999319925
0.999999237336
0.999999141386
0.999999070925
0.999999028606
0.999999000908
0.999998977524
0.99999895615
0.999998938893
0.999998926647
0.99999891801
0.999998910266
0.999998901667
0.999998891961
0.999998881693
0.99999887197
0.99999886384
0.999998858094
0.999998854945
0.999998854252
0.999998855575
0.999998858283
0.999998861871
0.999998863872
0.999998863513
0.999998861078
0.999998859185
0.999998863443
0.999998880155
0.999998908695
0.999998936533
0.999998944081
0.999998916826
0.999998844806
0.999998754568
0.999999033749
0.999999015287
0.999999100212
0.999999335071
0.999999493553
0.999999507911
0.999999432442
0.999999341877
0.999999275806
0.999999237496
0.999999214005
0.999999194836
0.999999177478
0.999999163565
0.999999154008
0.999999147429
0.99999914144
0.999999134384
0.999999126069
0.999999117404
0.999999109603
0.99999910363
0.999999100035
0.999999098851
0.999999099881
0.999999102587
0.999999106184
0.999999109523
0.999999110973
0.999999109099
0.999999103613
0.999999097442
0.999999096846
0.999999109019
0.999999133112
0.999999154741
0.999999149191
0.999999096531
0.99999899211
0.999998872805
0.999999087819
0.999999070757
0.99999913562
0.999999372122
0.999999538224
0.999999562108
0.999999488298
0.99999939812
0.999999332668
0.999999296046
0.999999275402
0.999999259484
0.999999245219
0.999999234076
0.999999226977
0.999999222566
0.999999218491
0.999999213125
0.999999206421
0.999999199435
0.999999193443
0.999999189423
0.99999918778
0.999999188488
0.999999191189
0.999999195333
0.999999200143
0.999999204246
0.999999205681
0.999999202791
0.999999194914
0.99999918524
0.999999180894
0.999999190164
0.999999212665
0.999999231702
0.999999213997
0.999999138085
0.999999008734
0.999998879491
0.99999907111
0.999999028012
0.999999091819
0.999999333326
0.99999950416
0.999999529643
0.999999454191
0.99999936106
0.999999293202
0.999999255416
0.999999235255
0.999999220564
0.999999207833
0.999999198172
0.999999192421
0.999999189144
0.99999918592
0.999999181214
0.99999917498
0.999999168317
0.999999162655
0.999999159157
0.999999157929
0.999999158954
0.999999161725
0.999999165912
0.999999170648
0.999999173765
0.999999173317
0.999999167738
0.999999155063
0.999999138508
0.999999126763
0.99999913182
0.99999915405
0.9999991752
0.99999915695
0.999999075658
0.999998935353
0.999998782422
0.999999008158
0.999998967323
0.999999044188
0.999999291359
0.999999463422
0.999999486114
0.999999407133
0.99999930986
0.999999239689
0.999999200626
0.999999179949
0.999999165257
0.999999152319
0.999999142055
0.999999137
0.999999134334
0.999999131895
0.999999127274
0.999999120391
0.999999112124
0.999999104802
0.999999099887
0.999999097231
0.999999096722
0.999999098127
0.999999100512
0.999999102875
0.999999104711
0.999999107622
0.999999101815
0.999999084918
0.999999060972
0.999999038187
0.99999903731
0.999999062463
0.999999092229
0.999999078047
0.999998999283
0.999998856596
0.999998692141
0.999998949547
0.999998961384
0.99999902835
0.999999278672
0.999999450053
0.999999469679
0.999999386903
0.999999285763
0.999999212626
0.999999177101
0.999999157517
0.999999144276
0.999999134605
0.999999130543
0.999999126543
0.999999123289
0.999999118773
0.999999113117
0.999999106298
0.999999100686
0.999999096269
0.999999091893
0.999999089845
0.999999089941
0.999999091733
0.999999094529
0.999999097471
0.999999099636
0.999999094251
0.999999081941
0.999999062009
0.999999038529
0.999999024263
0.999999014485
0.999999020967
0.99999903969
0.999999025566
0.999998948874
0.99999880499
0.999998661775
0.999998911209
0.99999896563
0.999999039802
0.999999290266
0.999999460029
0.999999477065
0.999999390647
0.999999286911
0.999999212089
0.999999175638
0.999999156648
0.999999144031
0.999999134718
0.999999130788
0.999999127718
0.999999125398
0.999999121134
0.999999115823
0.99999910971
0.999999104268
0.999999099891
0.999999095649
0.999999093375
0.999999092841
0.999999094174
0.999999096804
0.999999099701
0.999999101079
0.999999095298
0.999999082465
0.999999061258
0.999999034954
0.999999016235
0.999999007091
0.99999901347
0.999999019406
0.999999004353
0.999998926513
0.999998780665
0.999998644227
0.999998890872
0.999998975973
0.999999058167
0.999999306883
0.999999474851
0.999999490238
0.999999401007
0.999999295572
0.999999219502
0.999999181217
0.999999162552
0.999999151235
0.999999142322
0.999999135863
0.99999913279
0.999999131189
0.999999129026
0.999999123756
0.999999116137
0.999999109167
0.99999910412
0.999999099929
0.999999097667
0.999999097115
0.999999098411
0.999999101039
0.999999104
0.999999106087
0.999999102473
0.99999909067
0.999999068949
0.999999037468
0.999999013905
0.999999003636
0.999999007983
0.99999901484
0.999998996352
0.999998914824
0.999998766835
0.999998624671
0.999998877474
0.999998991087
0.999999067726
0.999999314632
0.999999481155
0.999999495617
0.999999404323
0.999999297568
0.999999220837
0.999999182329
0.999999164265
0.999999153976
0.999999146614
0.999999141231
0.999999138835
0.999999137602
0.999999134988
0.999999129548
0.999999121711
0.999999113004
0.999999107316
0.99999910254
0.999999100015
0.999999099465
0.999999100873
0.999999103353
0.999999106107
0.999999107822
0.999999105919
0.999999095658
0.999999073005
0.999999039009
0.999999010773
0.999998995949
0.999998999009
0.999999007922
0.999998984401
0.999998898641
0.999998748565
0.999998601683
0.999998861004
0.999998994699
0.999999065519
0.999999311497
0.999999476994
0.999999490939
0.99999939831
0.999999290543
0.999999213095
0.999999174622
0.99999915835
0.999999148043
0.999999140557
0.999999136809
0.999999135787
0.999999134975
0.999999132318
0.999999126613
0.999999118425
0.999999109463
0.999999101577
0.999999095914
0.99999909324
0.999999092906
0.999999094625
0.999999097427
0.999999100586
0.99999910196
0.999999100572
0.999999090283
0.999999066892
0.999999032583
0.999999000927
0.999998981723
0.999998985517
0.999998989582
0.999998962438
0.999998874083
0.999998722033
0.99999856081
0.999998839196
0.999998986242
0.999999056061
0.999999301491
0.999999466336
0.999999480094
0.999999386692
0.99999927817
0.999999200344
0.99999916233
0.999999146101
0.999999136446
0.999999130075
0.999999126904
0.999999126052
0.99999912551
0.999999122521
0.999999116253
0.999999107732
0.999999098534
0.999999090266
0.999999084324
0.999999081944
0.99999908208
0.999999083505
0.999999086488
0.999999089454
0.999999090581
0.999999088385
0.999999076914
0.999999052
0.99999901574
0.999998982275
0.999998960162
0.999998962929
0.999998963459
0.999998934696
0.999998845518
0.999998691052
0.999998523815
0.99999881548
0.999998975641
0.999999044362
0.9999992894
0.999999453783
0.999999467676
0.99999937376
0.999999264687
0.999999186449
0.999999148506
0.999999132762
0.999999123731
0.999999118081
0.999999115145
0.999999114366
0.999999113469
0.99999911029
0.999999103772
0.999999094892
0.999999085168
0.999999076326
0.999999070279
0.999999067445
0.99999906678
0.999999067941
0.999999070788
0.999999073717
0.999999075241
0.999999072856
0.999999060708
0.999999033669
0.999998995615
0.999998962064
0.999998932792
0.999998929636
0.999998937133
0.999998908031
0.999998818552
0.999998661867
0.999998510916
0.99999879426
0.999998966202
0.999999033121
0.999999277466
0.999999441422
0.9999994557
0.999999361316
0.999999251726
0.99999917284
0.999999135038
0.999999119792
0.999999110938
0.999999105253
0.999999102416
0.999999101244
0.999999099887
0.999999096712
0.999999089906
0.999999079661
0.999999068588
0.999999058783
0.999999052762
0.999999049823
0.999999048735
0.99999905013
0.999999053252
0.999999056423
0.99999905841
0.999999055597
0.999999042125
0.999999016558
0.999998978724
0.999998937254
0.999998910893
0.999998906646
0.999998914459
0.999998885693
0.999998796858
0.999998639711
0.999998498019
0.999998779729
0.999998957667
0.999999022509
0.999999265749
0.999999429237
0.999999444048
0.999999349159
0.999999238995
0.999999159308
0.999999121558
0.99999910618
0.999999097198
0.999999091298
0.999999088011
0.999999086596
0.999999084804
0.999999080545
0.999999072455
0.999999060822
0.999999049129
0.999999039134
0.999999032418
0.999999029179
0.999999028666
0.999999030085
0.999999032803
0.999999036562
0.999999038656
0.999999035349
0.999999024201
0.999998999816
0.999998957991
0.999998911482
0.999998893624
0.999998888593
0.999998895722
0.999998868287
0.999998781713
0.999998625966
0.999998488027
0.999998774042
0.999998949021
0.999999011664
0.999999253593
0.999999416605
0.999999432039
0.999999336619
0.999999225789
0.999999145374
0.99999910714
0.999999091406
0.999999081928
0.999999075638
0.999999071767
0.999999069919
0.999999067216
0.999999060903
0.999999051689
0.999999039466
0.999999026832
0.999999016342
0.999999008594
0.999999005469
0.999999005659
0.999999006491
0.999999008403
0.99999901337
0.999999015622
0.99999901175
0.999999003184
0.999998978793
0.999998935488
0.999998893823
0.999998876625
0.999998871812
0.999998879179
0.999998854613
0.999998772004
0.999998620226
0.999998489532
0.999998775853
0.999998939743
0.999999000083
0.999999240705
0.999999403325
0.999999419523
0.999999323624
0.99999921211
0.999999130658
0.999999091711
0.999999076051
0.99999906588
0.999999058815
0.999999054219
0.99999905109
0.999999047539
0.999999040017
0.999999029027
0.99999901554
0.999999002158
0.999998991186
0.999998983084
0.99999897917
0.9999989787
0.999998978966
0.99999898193
0.999998984948
0.999998986419
0.999998985593
0.999998981366
0.999998956169
0.999998911066
0.999998876157
0.999998862042
0.999998860578
0.999998863743
0.999998844393
0.999998766641
0.999998621323
0.999998502252
0.999998785015
0.999998930242
0.999998987796
0.999999227273
0.99999938969
0.999999406856
0.999999310589
0.999999198575
0.999999115589
0.99999907607
0.999999060251
0.999999049149
0.999999041501
0.999999036029
0.999999031665
0.999999026572
0.999999018712
0.999999005933
0.999998991149
0.999998976764
0.999998964506
0.999998956331
0.999998952725
0.999998951573
0.999998953324
0.999998957223
0.999998958399
0.999998960416
0.999998961967
0.999998960964
0.999998935296
0.99999888483
0.999998862042
0.999998850638
0.999998849302
0.999998851367
0.999998839119
0.999998766051
0.999998628251
0.9999985166
0.999998800739
0.999998920657
0.999998975061
0.999999213629
0.999999376118
0.999999394513
0.999999297997
0.999999185757
0.999999100579
0.999999060591
0.999999045309
0.999999033158
0.999999024145
0.999999017711
0.999999012582
0.999999005872
0.999998996126
0.999998982956
0.99999896717
0.999998952112
0.999998939524
0.999998931471
0.999998927972
0.999998927271
0.99999892993
0.999998934422
0.999998941202
0.9999989448
0.999998942575
0.999998942512
0.999998919271
0.999998868163
0.99999885244
0.999998840919
0.999998843172
0.999998849899
0.999998838174
0.999998773539
0.999998643277
0.999998532803
0.999998827575
0.999998910155
0.999998961928
0.999999199924
0.999999362784
0.999999382679
0.999999285934
0.999999173522
0.999999086125
0.999999045788
0.999999029849
0.999999017336
0.999999007079
0.999998999356
0.999998992985
0.999998984851
0.999998973711
0.999998959858
0.999998943009
0.999998927143
0.999998914976
0.999998908303
0.99999890451
0.999998905162
0.999998908968
0.999998915364
0.999998924122
0.999998930872
0.999998932279
0.999998930476
0.999998912691
0.999998863613
0.999998846366
0.999998835943
0.999998842732
0.999998854796
0.999998843808
0.99999879247
0.999998674713
0.999998548685
0.999998876329
0.99999889834
0.999998948479
0.9999991861
0.999999349631
0.999999371201
0.999999274097
0.999999161105
0.999999072406
0.999999030957
0.999999014391
0.999999000336
0.999998989173
0.999998980549
0.999998972047
0.999998963074
0.999998951321
0.999998935219
0.999998917919
0.999998901957
0.999998890971
0.999998884445
0.999998882279
0.999998885089
0.999998891311
0.999998899775
0.999998907379
0.999998916264
0.999998923384
0.999998923878
0.999998907491
0.999998862051
0.999998843363
0.999998834657
0.999998846236
0.999998859607
0.999998866042
0.99999882887
0.999998728677
0.9999986378
0.99999894803
0.999998885817
0.999998934713
0.999999172412
0.999999336492
0.999999359711
0.999999262113
0.999999148394
0.999999058206
0.999999015318
0.999998998298
0.999998982152
0.999998969661
0.999998959188
0.999998949466
0.999998939803
0.999998926152
0.999998909104
0.999998891427
0.999998876121
0.999998865866
0.999998859646
0.999998860469
0.999998867458
0.999998877288
0.999998885957
0.999998894597
0.999998904004
0.999998913801
0.999998920806
0.999998901718
0.999998862027
0.999998848683
0.999998841932
0.999998853577
0.999998884633
0.999998910441
0.999998884209
0.999998797773
0.999998740548
0.999999025694
0.999998875128
0.999998921395
0.999999158569
0.999999323285
0.999999348037
0.999999249713
0.999999135107
0.999999043207
0.999998998737
0.999998979994
0.999998962449
0.999998948249
0.999998935752
0.999998925
0.999998913192
0.999998898171
0.999998880511
0.999998863246
0.9999988487
0.999998838817
0.999998835325
0.999998839728
0.999998851292
0.999998862083
0.999998870888
0.999998879682
0.999998891382
0.999998903591
0.999998915486
0.999998918965
0.999998871623
0.999998856768
0.999998851027
0.999998863738
0.999998900379
0.999998957631
0.999998945021
0.999998874481
0.999998882011
0.999999096798
0.999998865419
0.999998908194
0.999999144827
0.999999310086
0.999999336211
0.999999236913
0.999999121276
0.9999990275
0.999998980917
0.999998960312
0.999998941847
0.999998924898
0.999998910019
0.999998897967
0.99999888431
0.999998868249
0.999998850462
0.99999883364
0.999998819205
0.999998812012
0.999998811692
0.999998822169
0.999998833052
0.999998843603
0.999998853802
0.999998865373
0.999998887101
0.999998899259
0.999998907686
0.99999892786
0.999998875452
0.999998863024
0.999998860203
0.999998873479
0.999998909968
0.999998982077
0.999998999594
0.99999897097
0.999999019151
0.999999189665
0.999998855003
0.99999889472
0.999999131517
0.999999297001
0.999999324363
0.99999922389
0.999999107104
0.999999011377
0.99999896241
0.999998940155
0.999998919658
0.999998900384
0.999998883986
0.999998869323
0.999998853755
0.999998837747
0.999998820258
0.99999880305
0.999998792275
0.99999878899
0.999998796409
0.999998808447
0.999998818465
0.999998828708
0.999998840969
0.999998867596
0.999998879613
0.999998890454
0.999998896651
0.999998914753
0.999998872396
0.99999886022
0.99999886707
0.999998881784
0.999998960174
0.999999000236
0.999999046581
0.999999072194
0.999999118657
0.999999302296
0.9999988439
0.9999988814
0.999999118093
0.99999928366
0.999999312133
0.999999210132
0.999999092018
0.99999899439
0.999998943701
0.999998918984
0.999998895562
0.999998874105
0.999998856173
0.999998838908
0.999998822522
0.999998806188
0.999998789808
0.999998774277
0.999998768242
0.999998768836
0.999998781532
0.999998793021
0.999998804461
0.999998816483
0.999998845005
0.999998864413
0.999998875887
0.999998878943
0.999998910522
0.999998905372
0.999998866704
0.999998854411
0.999998861381
0.999998895022
0.999999007529
0.999999050912
0.999999108359
0.999999148542
0.999999184542
0.999999403478
0.999998832102
0.999998867671
0.99999910354
0.99999926889
0.999999297931
0.999999193911
0.999999073978
0.99999897424
0.999998923325
0.99999889406
0.999998868229
0.999998844827
0.999998824403
0.999998805413
0.99999878898
0.999998773098
0.99999875795
0.999998746618
0.999998743047
0.999998749906
0.999998766102
0.999998777933
0.999998791753
0.999998826844
0.999998846861
0.999998858735
0.999998862715
0.999998889367
0.999999042993
0.999998883365
0.999998869489
0.999998863124
0.999998867447
0.999998898376
0.99999899253
0.999999112433
0.999999184453
0.999999219691
0.999999269942
0.999999492056
0.999998819517
0.999998851611
0.999999086182
0.999999250546
0.999999278705
0.999999171978
0.999999049469
0.999998947407
0.999998894806
0.999998861658
0.999998833777
0.999998808049
0.999998784694
0.999998764543
0.999998748097
0.999998732646
0.999998718359
0.999998711752
0.999998712032
0.999998723805
0.999998746609
0.999998772689
0.999998797106
0.999998825461
0.999998837788
0.999998847064
0.999998901027
0.999998980238
0.999998895531
0.999998886257
0.999998870818
0.999998853344
0.999998830512
0.999998838636
0.999998948186
0.999999118804
0.999999236367
0.999999322004
0.999999416703
0.999999592201
0.999998803776
0.99999883219
0.999999064378
0.999999226685
0.999999251829
0.999999141411
0.999999015144
0.999998910231
0.999998852589
0.999998815158
0.999998785475
0.999998757748
0.999998731952
0.999998710983
0.999998692384
0.999998676446
0.99999866486
0.999998661153
0.999998665854
0.999998681209
0.999998713728
0.999998755363
0.999998787104
0.999998802382
0.999998837961
0.999998910105
0.999998879778
0.999998837311
0.99999885291
0.999998892841
0.999998831693
0.999998736992
0.999998694549
0.999998741664
0.999998904641
0.999999111141
0.999999272217
0.999999432614
0.999999565155
0.999999707089
0.999998784197
0.999998810716
0.999999038021
0.99999919754
0.999999217973
0.999999102849
0.999998971188
0.999998860368
0.999998798744
0.999998757058
0.999998724293
0.999998693439
0.999998664411
0.999998640834
0.999998620662
0.999998605973
0.999998599828
0.99999859908
0.999998608596
0.999998637514
0.999998680843
0.999998718648
0.999998755735
0.999998797808
0.999998853999
0.999998859997
0.999998830288
0.999998821709
0.999998842082
0.999998819138
0.99999869892
0.999998664354
0.999998679453
0.999998703349
0.999998886652
0.999999115121
0.999999333762
0.999999531448
0.999999694834
0.999999826722
0.999998765049
0.999998789003
0.99999901135
0.999999167229
0.999999182608
0.9999990624
0.999998924813
0.999998805889
0.999998741144
0.99999869563
0.999998658525
0.999998623742
0.99999859221
0.999998567211
0.999998549765
0.999998539279
0.999998535604
0.999998542916
0.999998566864
0.999998604985
0.999998641534
0.99999868773
0.999998731949
0.99999878231
0.99999883886
0.999998834704
0.999998816537
0.999998806104
0.999998802174
0.999998690322
0.999998658424
0.999998650203
0.999998664986
0.999998792628
0.99999892124
0.999999110359
0.999999410007
0.999999647294
0.999999832268
0.999999937319
0.999998757022
0.999998771456
0.999998989607
0.999999141754
0.999999153339
0.999999028691
0.999998887099
0.999998763021
0.999998686475
0.999998641251
0.999998601815
0.999998564138
0.999998532474
0.999998508066
0.999998492406
0.999998485022
0.999998487122
0.999998506047
0.99999853842
0.999998568479
0.99999861422
0.999998676873
0.99999872594
0.999998781775
0.999998837267
0.999998836523
0.999998810943
0.999998785772
0.999998715553
0.999998664527
0.999998650233
0.99999866294
0.999998711297
0.999998867451
0.999998962239
0.999999166777
0.999999514423
0.99999978176
0.999999973959
1.00000005886
0.999998750037
0.999998761841
0.999998974023
0.999999122522
0.999999131707
0.999999004216
0.999998860402
0.999998733662
0.999998650362
0.999998601628
0.999998556978
0.999998515616
0.999998482988
0.999998459327
0.999998443283
0.999998438747
0.999998447062
0.999998469044
0.999998508935
0.999998558357
0.999998610851
0.999998673515
0.999998739701
0.999998826238
0.999998865638
0.999998832388
0.999998825269
0.999998792965
0.999998686405
0.999998671148
0.999998665404
0.999998679773
0.999998801759
0.999998882597
0.999999016495
0.999999333231
0.999999653989
0.999999918027
1.00000013124
1.00000018525
0.999998749925
0.999998755556
0.999998956364
0.999999099585
0.999999102681
0.999998974884
0.99999883027
0.999998705407
0.999998617581
0.999998555358
0.999998506817
0.999998463258
0.999998427404
0.999998402767
0.999998388702
0.999998386734
0.999998399651
0.999998424686
0.999998468152
0.999998534422
0.999998609924
0.999998677787
0.999998754045
0.999998853966
0.999998896634
0.999998845312
0.999998839807
0.999998842577
0.999998750223
0.999998686405
0.999998687386
0.999998752491
0.999998815748
0.999998922913
0.999999167991
0.999999518658
0.999999800449
1.00000006631
1.00000028413
1.00000029099
0.99999874335
0.999998738838
0.999998924055
0.999999052716
0.999999038263
0.999998911183
0.99999876571
0.999998639416
0.999998544239
0.999998475672
0.999998421103
0.999998374152
0.999998335972
0.999998309911
0.999998298201
0.99999830009
0.999998316758
0.999998348433
0.999998396991
0.999998466494
0.999998555266
0.999998652132
0.999998748596
0.999998834336
0.99999888437
0.999998890328
0.999998881408
0.999998876789
0.999998869463
0.999998838912
0.999998796823
0.999998782486
0.999998895503
0.999999116424
0.999999411441
0.999999684228
0.999999954997
1.00000021403
1.00000039466
1.0000003738
0.999998721729
0.999998703074
0.999998862877
0.999998965379
0.99999892479
0.999998791683
0.999998642387
0.999998512407
0.999998412333
0.999998337312
0.999998276496
0.999998225079
0.999998184446
0.999998158281
0.999998147933
0.999998152441
0.999998174656
0.99999821485
0.999998273486
0.999998352651
0.999998457773
0.999998581167
0.999998699681
0.999998785858
0.999998831042
0.999998869814
0.999998918253
0.99999894132
0.999998932114
0.999998924138
0.999998941921
0.999999001743
0.999999138431
0.999999349482
0.99999960001
0.99999985168
1.00000011119
1.00000032558
1.00000049406
1.00000044377
0.999998680209
0.999998644782
0.999998764276
0.999998834012
0.999998765241
0.999998618556
0.999998460428
0.999998324048
0.999998217224
0.999998135078
0.999998068306
0.99999800952
0.999997963467
0.999997935373
0.9999979271
0.999997935947
0.999997964816
0.999998013052
0.999998083589
0.999998184094
0.999998315113
0.999998457995
0.999998590606
0.999998710002
0.999998803927
0.999998860255
0.999998902273
0.999998944995
0.999998985737
0.999999013442
0.999999055501
0.999999159266
0.999999329246
0.999999540286
0.999999767721
1.00000001357
1.0000002329
1.0000004334
1.00000058364
1.00000049997
0.999998646057
0.999998610244
0.999998655512
0.999998699866
0.999998602562
0.999998442079
0.999998275806
0.99999812707
0.99999802298
0.999997924303
0.999997826887
0.999997804083
0.99999778192
0.999997760978
0.999997757416
0.999997774755
0.999997795123
0.999997831716
0.999997910278
0.999998039982
0.999998223916
0.999998389801
0.999998537066
0.999998684417
0.999998807993
0.999998877073
0.999998923156
0.999998983705
0.999999059456
0.999999126454
0.999999185406
0.999999285961
0.99999946579
0.999999675134
0.999999902453
1.00000012955
1.0000003369
1.0000005155
1.00000063838
1.00000051044
0.999998925329
0.999998902043
0.99999893383
0.999998927135
0.999998840623
0.999998714384
0.999998587706
0.999998480067
0.999998394
0.999998325079
0.999998269505
0.99999822185
0.999998186122
0.999998167404
0.999998165692
0.999998179557
0.999998215412
0.999998274892
0.999998357238
0.999998461908
0.999998593932
0.999998736006
0.999998853932
0.999998953617
0.999999050992
0.999999130134
0.999999186025
0.999999231301
0.999999275859
0.999999330809
0.99999940294
0.99999950228
0.99999964188
0.999999802467
0.99999997949
1.00000014275
1.00000029847
1.00000042652
1.00000048851
1.00000034147
0.999998737152
0.999998732051
0.999998913322
0.999999037574
0.999999035792
0.999998944405
0.999998841223
0.999998764018
0.999998714751
0.999998681674
0.999998653075
0.999998626882
0.999998604707
0.999998589374
0.999998579505
0.99999857198
0.999998564292
0.99999855529
0.999998547558
0.999998538106
0.999998528007
0.999998519023
0.999998512833
0.999998509388
0.999998508075
0.999998508383
0.999998510318
0.999998512259
0.999998513582
0.999998514959
0.999998519041
0.999998529421
0.999998542403
0.999998578876
0.999998621086
0.9999986552
0.999998670336
0.999998669797
0.999998676437
0.999998991907
0.999998735424
0.999998863351
0.999999082656
0.99999920108
0.999999185366
0.999999094755
0.999998997757
0.999998927163
0.999998882871
0.999998851578
0.999998824469
0.999998800038
0.999998780525
0.999998766468
0.999998756315
0.999998747129
0.999998737113
0.999998725798
0.999998713242
0.999998701542
0.999998691296
0.999998683149
0.999998677559
0.999998674498
0.999998673576
0.999998674263
0.999998675651
0.999998676376
0.999998676163
0.999998675715
0.999998677932
0.999998688591
0.999998716236
0.999998753407
0.999998791179
0.999998813937
0.999998813134
0.999998784174
0.999998738349
0.999999016776
0.999998927511
0.999999094438
0.999999323937
0.999999448215
0.999999440363
0.999999360396
0.999999274647
0.999999213576
0.999999176142
0.999999150257
0.999999127828
0.999999107721
0.999999091724
0.99999908042
0.999999072207
0.999999064684
0.999999056232
0.999999046607
0.999999036571
0.999999027205
0.999999019426
0.999999013803
0.999999010561
0.999999009501
0.999999010226
0.99999901203
0.999999013925
0.999999014755
0.999999013679
0.999999011154
0.999999010063
0.999999016153
0.999999034712
0.999999064389
0.9999990922
0.999999097629
0.999999065538
0.999998994867
0.999998900902
0.999999097004
0.999999071957
0.999999234365
0.999999468603
0.999999602051
0.999999604437
0.999999533413
0.999999454411
0.99999939838
0.999999365173
0.999999343283
0.999999324759
0.99999930829
0.99999929541
0.999999286564
0.999999280204
0.999999274123
0.999999266956
0.999999258678
0.999999250182
0.999999242588
0.999999236745
0.999999233076
0.999999231585
0.999999232008
0.999999233829
0.999999236286
0.999999238291
0.999999238477
0.999999235739
0.999999230237
0.999999225187
0.999999226695
0.999999240953
0.999999266008
0.999999286734
0.999999277556
0.999999219851
0.999999113832
0.999998986161
0.999999142698
0.999999101753
0.99999925215
0.999999491392
0.999999633532
0.999999643246
0.999999575939
0.999999498674
0.999999443868
0.999999412227
0.99999939246
0.999999376426
0.999999362504
0.999999351963
0.999999345126
0.999999340441
0.999999335766
0.999999329863
0.999999322812
0.999999315585
0.999999309335
0.999999304879
0.99999930254
0.99999930222
0.999999303617
0.999999306143
0.999999309001
0.999999310967
0.999999310536
0.999999306159
0.999999297741
0.999999288892
0.999999286194
0.999999297238
0.999999320143
0.999999338037
0.999999320792
0.999999247085
0.999999119596
0.99999897405
0.99999912332
0.999999056012
0.999999206996
0.999999453677
0.999999601874
0.999999614255
0.999999546657
0.999999467941
0.999999412028
0.999999380278
0.999999361228
0.999999346444
0.99999933401
0.999999324963
0.999999319475
0.999999315928
0.999999312173
0.99999930701
0.999999300591
0.999999293952
0.999999288261
0.999999284352
0.999999282482
0.999999282537
0.999999284156
0.999999286741
0.999999289458
0.999999290905
0.999999289356
0.999999282773
0.999999270896
0.999999257432
0.999999250166
0.999999257822
0.999999279643
0.999999297643
0.999999278929
0.99999919929
0.999999061123
0.999998903367
0.999999066311
0.999999006189
0.999999165752
0.999999418481
0.999999569218
0.999999580888
0.999999510796
0.99999942947
0.999999371597
0.999999338905
0.999999319901
0.999999305625
0.999999293983
0.999999285758
0.999999281071
0.999999278285
0.999999275002
0.999999270069
0.999999263738
0.999999257121
0.999999251419
0.999999247547
0.999999245722
0.999999245782
0.999999247356
0.999999249886
0.999999252534
0.999999253553
0.99999925096
0.999999242698
0.999999228178
0.999999210724
0.999999199175
0.999999203254
0.999999223329
0.999999241464
0.999999223648
0.999999143282
0.999999000965
0.999998835566
0.999999013719
0.999998986236
0.999999154384
0.999999409886
0.999999560382
0.999999569905
0.99999949687
0.999999413017
0.999999353349
0.99999931851
0.999999299078
0.999999284862
0.999999273009
0.999999263947
0.999999259918
0.999999258068
0.999999255887
0.999999251334
0.999999244691
0.999999236864
0.999999230029
0.999999225746
0.999999223581
0.999999223436
0.999999224907
0.999999227383
0.999999229972
0.999999230978
0.999999230521
0.999999222638
0.999999206256
0.999999184622
0.999999166832
0.999999167362
0.999999186402
0.99999920537
0.999999187539
0.999999106888
0.999998962658
0.999998790101
0.999998981037
0.999998995732
0.999999165472
0.99999942062
0.999999569247
0.999999576111
0.99999950018
0.999999414107
0.999999353163
0.999999317992
0.999999298491
0.999999284755
0.999999273752
0.999999265519
0.999999261993
0.999999260436
0.999999258485
0.999999253583
0.999999246246
0.999999237722
0.999999230105
0.999999225422
0.999999223128
0.999999223003
0.999999224508
0.999999226973
0.999999229521
0.99999923116
0.999999231417
0.999999223417
0.999999205826
0.999999181691
0.999999160276
0.999999155358
0.999999170057
0.999999188885
0.999999169213
0.999999087227
0.999998941112