/*--------------------------------*- C++ -*----------------------------------*\
| =========                 |                                                 |
| \\      /  F ield         | foam-extend: Open Source CFD                    |
|  \\    /   O peration     | Version:     4.1                                |
|   \\  /    A nd           | Web:         http://www.foam-extend.org         |
|    \\/     M anipulation  |                                                 |
\*---------------------------------------------------------------------------*/
FoamFile
{
    version     2.0;
    format      ascii;
    class       volScalarField;
    location    "0.4";
    object      epsilon;
}
// * * * * * * * * * * * * * * * * * * * * * * * * * * * * * * * * * * * * * //

dimensions      [0 2 -3 0 0 0 0];

internalField   nonuniform List<scalar> 
96000
(
0.0391722090793
0.0394011488372
0.0401274462845
0.0404637980183
0.0405820756728
0.0406199133806
0.0406317164867
0.0406357128663
0.0406375127083
0.0406387735341
0.0406399571085
0.0406411901385
0.0406425030719
0.0406439012579
0.0406453821843
0.0406469407967
0.0406485705137
0.040650263772
0.0406520118158
0.0406538053125
0.0406556289306
0.0406574800848
0.0406593455363
0.0406612078298
0.0406630570191
0.0406648809822
0.0406666677608
0.0406684056577
0.0406700823925
0.040671679776
0.0406731514779
0.040674359547
0.0406747732923
0.0406723569661
0.0406606302146
0.040619574935
0.0404903582397
0.0401294629732
0.0393676889064
0.0391731024727
0.0394034987056
0.0496101327585
0.0567774187195
0.0604537823876
0.0619514053894
0.0625090744369
0.0627045715462
0.0627721517765
0.0627976183128
0.0628103198991
0.0628196127611
0.0628283929492
0.0628375074751
0.0628472049482
0.0628575469283
0.0628685375498
0.0628801555667
0.0628923661283
0.0629051200979
0.0629183600323
0.0629319948332
0.0629459777028
0.0629602358713
0.0629746368286
0.0629890940754
0.063003500794
0.063017745849
0.063031700836
0.0630451823567
0.0630578050715
0.0630684746541
0.0630737590457
0.063062825659
0.0630029905334
0.0628008272703
0.0622094760056
0.0606338617534
0.056838065744
0.0496221687121
0.0394157748575
0.0401271254888
0.0567669204184
0.0699728625231
0.0771804594196
0.0804800841355
0.0818600498161
0.0823946780165
0.0825899329232
0.0826590821995
0.0826845466383
0.0826957664359
0.082702726901
0.0827086558326
0.0827145899172
0.0827208634745
0.082727591715
0.0827348135128
0.0827425367174
0.0827507488705
0.0827594250321
0.0827685193887
0.0827779983466
0.082787806772
0.0827978586382
0.0828080757763
0.0828183601016
0.082828585473
0.0828385436152
0.0828477719909
0.0828549960525
0.0828564008228
0.0828406046739
0.0827747808692
0.082569784878
0.0819998998743
0.0805437714118
0.0771148341534
0.0697574093953
0.0565762515058
0.0401127506276
0.0404619071586
0.0604349020839
0.0771692380641
0.0868267972246
0.0915806469385
0.0937201470033
0.0946080897316
0.0949509755291
0.0950751333006
0.0951175979843
0.0951311973529
0.0951350625554
0.095135763058
0.0951355098171
0.0951350535537
0.0951346740712
0.0951344944229
0.0951345814971
0.0951349755802
0.0951357019187
0.0951367712322
0.0951381895717
0.0951399492277
0.0951420213753
0.0951443682766
0.095146923658
0.0951495596037
0.0951519676839
0.0951532889413
0.0951509906281
0.0951376017109
0.0950918542227
0.094956136156
0.0945848457955
0.0936379539759
0.0913964490497
0.0864956537629
0.0767041742936
0.0600905806467
0.0404311469778
0.0405795439392
0.0619277649557
0.0804610720671
0.0915717223426
0.0972945852646
0.0999928761126
0.101164605958
0.101635851491
0.101811582527
0.101871517192
0.101888573599
0.101890384991
0.101886840964
0.101881382323
0.101875209592
0.101868778527
0.101862296645
0.101855885923
0.101849633399
0.101843608421
0.101837866718
0.101832454733
0.101827405754
0.101822736523
0.101818445715
0.101814492502
0.10181073763
0.101806754341
0.101801253562
0.101790408038
0.101763191494
0.101689331722
0.101490329654
0.100977251808
0.0997319949244
0.0969201981718
0.0910510794369
0.0798354791653
0.0614978880185
0.0405418003126
0.0406171771945
0.06248323884
0.0818366880392
0.0937056710666
0.0999869097078
0.103034023791
0.104395536176
0.104958132053
0.105172890708
0.105247148588
0.105267851019
0.105268953029
0.105262948928
0.105254289071
0.10524455566
0.105234354974
0.105223964177
0.105213547519
0.105203225432
0.105193097272
0.105183247888
0.105173750284
0.105164664188
0.105156032449
0.105147874492
0.105140159398
0.105132725501
0.105125031283
0.105115413504
0.105098981972
0.105061936744
0.104967357363
0.104722271625
0.1041099605
0.102667068912
0.0995019457786
0.0930791121262
0.0811272403928
0.0620132690115
0.0405770655272
0.0406289393053
0.0626778209492
0.0823690866141
0.0945904674125
0.1011550386
0.104391788237
0.105862595829
0.106480586899
0.10672025959
0.106804295833
0.106827958875
0.106829157565
0.106822092175
0.106811902699
0.106800442195
0.10678842689
0.106776184911
0.106763910205
0.106751744995
0.106739806783
0.106728196528
0.106717001121
0.106706292465
0.106696123981
0.10668652112
0.106677449972
0.106668721275
0.106659698544
0.106648441567
0.106629319279
0.106586689555
0.10647942825
0.10620590313
0.105533878065
0.103977005092
0.100619064436
0.0939142536035
0.0816200558657
0.0621887837012
0.040588319509
0.0406329525981
0.0627450554943
0.0825632315122
0.0949316304084
0.101624202547
0.104952145503
0.106478303296
0.107125707494
0.107379285992
0.107469185102
0.107494961939
0.10749666897
0.107489472715
0.107478921586
0.107467037033
0.107454607387
0.107441995589
0.107429415714
0.107417023631
0.107404946726
0.107393293057
0.107382153835
0.107371602723
0.107361692134
0.107352442326
0.107343806911
0.107335566963
0.107327012355
0.107316015568
0.107296480093
0.107251664562
0.107138054193
0.106849336898
0.106145422687
0.104529355562
0.101075671917
0.094238975393
0.0817974382454
0.0622455842828
0.0405925013704
0.040634789488
0.062770385318
0.0826317451784
0.0950547232473
0.101798595542
0.105165433782
0.106716458431
0.107377760267
0.107638305435
0.107731429208
0.107758637219
0.107761007219
0.107754191478
0.107743956316
0.107732420169
0.10772041723
0.107708334873
0.107696401924
0.107684783676
0.107673613022
0.107663000075
0.107653034642
0.107643785509
0.107635296626
0.107627575452
0.107620556644
0.107613990338
0.107607107882
0.107597655876
0.107579253832
0.107534529574
0.107418664721
0.107122916914
0.106403371037
0.10475834516
0.101259193415
0.0943627228585
0.0818591978535
0.0622632216574
0.0405947902262
0.040636098674
0.0627830466336
0.0826567748443
0.095096402685
0.101857514748
0.105238563426
0.106799328236
0.107466492166
0.107730269982
0.107825146727
0.10785338826
0.107856504132
0.107850367375
0.107840854069
0.107830138563
0.107819086237
0.107808103719
0.107797432416
0.107787245442
0.107777679297
0.107768843533
0.107760823095
0.107753677543
0.107747437119
0.107742090751
0.107737548757
0.107733527838
0.10772920773
0.107722242021
0.10770606412
0.10766291737
0.107547230194
0.107248914408
0.106522052601
0.10486264621
0.101340857769
0.0944151712738
0.0818828660253
0.0622693492255
0.0405967344481
0.0406373414748
0.0627923720248
0.0826676608983
0.095109331771
0.10187367705
0.105258265465
0.10682196222
0.10749125341
0.107756488121
0.107852417953
0.107881526834
0.107885475194
0.107880227906
0.107871717561
0.107862154632
0.107852429413
0.107842966423
0.107834019714
0.107825770319
0.10781835788
0.107811890112
0.107806444874
0.10780206919
0.107798775249
0.107796528301
0.107795208888
0.10779449594
0.107793517682
0.107789847099
0.10777677381
0.107736264186
0.107622227751
0.107323671882
0.106593373119
0.104925832324
0.101390486254
0.0944467807938
0.0818967015148
0.062273257715
0.0405988143119
0.0406386471685
0.0628012775741
0.0826743823613
0.0951126046384
0.101874658354
0.105258429217
0.106822203541
0.107492035644
0.107757984401
0.107854708774
0.107884680937
0.107889590373
0.107885437414
0.107878188545
0.107870083016
0.107862034937
0.107854487775
0.107847709698
0.107841890738
0.107837174017
0.107833664713
0.107831431736
0.107830506459
0.107830878635
0.107832484303
0.10783516793
0.107838564309
0.107841745251
0.107842202843
0.107833093471
0.107796139166
0.107684802849
0.107387316286
0.106655333132
0.104982010954
0.101436022848
0.0944772761565
0.0819115856313
0.0622785629002
0.0406012084774
0.0406400493004
0.0628106414025
0.0826801934903
0.0951128048973
0.101870353357
0.105251551227
0.106814256939
0.107484015672
0.107750429587
0.107847920848
0.107878855959
0.107884904174
0.107882079484
0.107876374993
0.107870058065
0.107864068574
0.10785887159
0.107854751879
0.107851910288
0.107850494224
0.107850605895
0.107852303391
0.107855599076
0.107860455354
0.10786677268
0.107874351832
0.107882775048
0.107891049122
0.107896577251
0.107892376096
0.107859918549
0.107752216379
0.107456713365
0.106723903871
0.105045499472
0.101489210251
0.0945150599815
0.0819324020598
0.0622870911418
0.0406040138844
0.0406415563941
0.0628207476482
0.0826861710719
0.0951121801379
0.101864236717
0.105242116569
0.106803301504
0.107472788241
0.10773964584
0.107837997628
0.107870065402
0.107877479581
0.10787626142
0.107872430719
0.107868285841
0.107864796283
0.107862452615
0.10786155955
0.107862331182
0.107864920384
0.107869426115
0.107875893693
0.107884312641
0.107894612286
0.107906649944
0.107920173502
0.107934702084
0.107949165765
0.10796086577
0.10796266301
0.107935757617
0.107832669303
0.107539977605
0.106806885661
0.105123447475
0.101556145128
0.0945648261164
0.0819622662615
0.0623002199435
0.040607304861
0.0406431689461
0.0628316933149
0.0826926929344
0.0951115249551
0.101857553095
0.105231754593
0.106791243365
0.107460436486
0.107727824264
0.10782719942
0.107860621349
0.107869675632
0.107870391222
0.107868818342
0.107867291364
0.107866814742
0.10786790953
0.107870904608
0.107876030411
0.107883446964
0.107893249888
0.107905469591
0.107920068382
0.107936935838
0.107955877205
0.107976576442
0.107998476668
0.108020416584
0.108039578328
0.108048644789
0.108028509002
0.107931138897
0.107642142223
0.106909251656
0.105220593786
0.101641140085
0.0946301869351
0.0820038496581
0.062319235908
0.0406111495737
0.0406448846679
0.0628435166991
0.0826999179501
0.0951111650486
0.101850806038
0.105221123648
0.106778857853
0.107447817608
0.107715880264
0.107816487778
0.107851528051
0.107862541262
0.107865567808
0.107866694193
0.107868297427
0.107871423524
0.10787663012
0.107884275478
0.107894610321
0.107907804067
0.107923949173
0.107943058896
0.107965063405
0.107989804763
0.108017025619
0.108046332887
0.1080770782
0.108107991079
0.108136113622
0.108153924167
0.108141969874
0.108051621874
0.107767448194
0.107035522034
0.105341676794
0.101751316119
0.0947175954784
0.0820622805068
0.0623456236892
0.0406156140859
0.0406466994672
0.0628562287364
0.0827079271117
0.0951112688118
0.101844251294
0.105210554276
0.106766534336
0.10743536646
0.107704286591
0.107806371166
0.107843331613
0.107856664955
0.107862428789
0.107866753403
0.107872066447
0.107879463386
0.107889545817
0.107902707764
0.107919225152
0.107939279782
0.107962961495
0.107990264077
0.108021080077
0.108055195156
0.108092277012
0.108131839892
0.10817312537
0.108214733397
0.108253546695
0.108281874499
0.108280014523
0.108200530606
0.107929796812
0.107210462691
0.105522043215
0.101924191348
0.0948626699162
0.0821667976796
0.0623897463291
0.0406207937749
0.0406486077915
0.0628698226104
0.082716766639
0.0951119458746
0.101838057553
0.105200263409
0.106754527985
0.107423369687
0.107693358972
0.107797195523
0.107836411981
0.1078524664
0.107861440962
0.107869518643
0.107879187115
0.10789160065
0.10790741356
0.107927063341
0.107950857198
0.107978993168
0.108011559557
0.108048528451
0.108089748669
0.108134939156
0.108183678031
0.108235368625
0.108289126056
0.108343473629
0.108395364982
0.108441562692
0.108464915572
0.108413366513
0.108166414459
0.107464358633
0.105781654923
0.10217408706
0.095079791724
0.0823308168474
0.0624693873909
0.0406269246042
0.0406506026545
0.0628842756545
0.082726459699
0.0951132763194
0.101832356042
0.105190422059
0.106743040479
0.107412054285
0.107683348574
0.107789238131
0.107831076769
0.107850289483
0.107862991864
0.107875429869
0.107890162084
0.107908412451
0.10793089831
0.107958109794
0.107990392778
0.108027966515
0.108070919551
0.108119200021
0.108172606019
0.108230777508
0.108293188062
0.108359154712
0.108427933841
0.108503071631
0.10858729701
0.108668685327
0.10872569721
0.108704528017
0.108483584356
0.107799673548
0.106122269058
0.102502860682
0.0953711915257
0.082558498514
0.062590767318
0.0406345012765
0.0406526757327
0.0628995464745
0.0827370068299
0.0951153177639
0.101827254869
0.105181175788
0.106732244805
0.107401614831
0.107674470189
0.107782735715
0.107827588608
0.107850428326
0.107867414097
0.107884866608
0.107905427758
0.107930403631
0.107960586547
0.107996530049
0.108038627648
0.108087125993
0.108142116246
0.108203519989
0.108271076081
0.108344338299
0.108422837195
0.108508772678
0.108611251814
0.108727467008
0.108851267697
0.108971569391
0.109064472481
0.109075829523
0.108881142429
0.108214775694
0.10654098192
0.102906337094
0.0957330129706
0.0828484839545
0.0627578335197
0.040645105847
0.0406548145482
0.0629155644627
0.0827483873183
0.0951181095439
0.101822843915
0.105172650482
0.106722291638
0.107392220035
0.107666908428
0.107777889852
0.107826169315
0.107853129813
0.107874985839
0.107898145978
0.107925349354
0.107957998288
0.107996973723
0.108042905194
0.108096244368
0.108157272561
0.108226086043
0.10830257637
0.108386430027
0.108477508428
0.108584474411
0.10871383999
0.10886153336
0.109022544125
0.109189285041
0.109349584402
0.109478753358
0.109521640373
0.109352025601
0.108701319725
0.107028739387
0.103375438325
0.0961560517588
0.0831928170012
0.0629668506798
0.0406614057579
0.0406570036632
0.0629322481166
0.0827605605481
0.0951216707904
0.101819193373
0.105164951367
0.106713308622
0.1073840118
0.107660816171
0.107774864364
0.10782699583
0.107858587682
0.107885922652
0.107915511691
0.107950206512
0.107991521326
0.108040441104
0.108097685649
0.108163776642
0.108239037781
0.108323572684
0.108417279317
0.108520605385
0.108649073109
0.108804589643
0.108983418836
0.109179722453
0.109386708169
0.109595904003
0.109794771184
0.109958457199
0.110031425925
0.10988583406
0.109249878147
0.1075771907
0.103902751234
0.0966329129592
0.083583540054
0.0632089480702
0.0406853068716
0.0406592459393
0.0629495684802
0.0827734976634
0.0951260106596
0.101816355507
0.105158161948
0.106705397693
0.107377101454
0.107656309672
0.107773779121
0.107830192411
0.10786693277
0.107900365261
0.107937118821
0.10798017437
0.108031175118
0.108091227034
0.108161155777
0.108241565466
0.108332829822
0.108435122971
0.108550668103
0.108697113427
0.108876985302
0.109085223755
0.109315437176
0.109559773798
0.109810560552
0.110059690645
0.110295374963
0.110493188633
0.110596937505
0.110476614041
0.109856446578
0.108183674002
0.104486248475
0.0971614261012
0.0840176390444
0.0634786092139
0.040714169135
0.0406615173869
0.0629673929978
0.0827871060222
0.0951310993667
0.101814352069
0.105152335681
0.10669862785
0.107371562214
0.107653460154
0.107774700403
0.107835819457
0.107878219827
0.1079183639
0.107963015067
0.10801530103
0.108077012306
0.108149393837
0.108233393153
0.108329708781
0.10843882671
0.108563662095
0.108724653114
0.108925150135
0.109159978739
0.109421519138
0.109700709301
0.109989564731
0.11028167582
0.110570321475
0.110844294585
0.111078788253
0.111216251817
0.111123895183
0.110521371209
0.108848799887
0.105126220172
0.0977407779726
0.0844928545898
0.0637729182326
0.0407455806451
0.0406637986532
0.0629855614809
0.0828012650393
0.095136876472
0.101813170495
0.105147486895
0.106693022835
0.107367414718
0.107652277667
0.107777623173
0.107843854058
0.107892406068
0.107939854392
0.107993113796
0.108055476891
0.108128900289
0.108214785965
0.108314218275
0.108428030836
0.108558660992
0.108728840024
0.108944837755
0.109201746742
0.109490926671
0.109801905734
0.11012622556
0.110458134588
0.110792806828
0.111123925948
0.111439899951
0.111714936096
0.111889722441
0.111828336193
0.111245419635
0.10957338046
0.105823536573
0.0983718034102
0.085008444108
0.0640886303647
0.0407787398841
0.040666077033
0.0630039546797
0.0828158478341
0.095143247737
0.101812746549
0.105143563742
0.106688527583
0.107364589136
0.107652670208
0.107782427931
0.107854144762
0.107909303755
0.107964608227
0.108027141043
0.108100377712
0.108186459231
0.10828696111
0.10840312751
0.108536498608
0.108709334663
0.108934262488
0.109207103169
0.109518809564
0.109857526207
0.110214140684
0.110583161455
0.11096044639
0.111341372113
0.111719121691
0.112081251983
0.112400747778
0.112616368702
0.112588862645
0.112027558551
0.110356728719
0.106578452333
0.0990567995766
0.085570112067
0.0644310624068
0.0408139948063
0.0406683356897
0.063022411825
0.082830675169
0.0951500378878
0.101812898639
0.105140362739
0.106684907242
0.107362813695
0.107654325495
0.107788757901
0.107866285207
0.107928450512
0.107992099359
0.108064498308
0.108149322505
0.108248913612
0.108365038252
0.108499416906
0.108667718808
0.108893724187
0.109175001468
0.109502676475
0.109863855076
0.110248371855
0.110650726964
0.111067145083
0.111493584424
0.111924822656
0.112353196139
0.112765265861
0.11313271989
0.113392294286
0.113401246629
0.112863319553
0.111194233904
0.107386319562
0.0997910822548
0.0861743537006
0.0648020591047
0.0408520146132
0.040670593305
0.0630407522668
0.0828454744591
0.095156874026
0.101813135569
0.105137273364
0.106681446841
0.107361285803
0.10765636479
0.107795661961
0.107879249183
0.107948737583
0.108021125641
0.108103876489
0.108200878761
0.108314688069
0.108447370042
0.108607284563
0.10882590476
0.109106540062
0.109442131597
0.109819139388
0.110225769726
0.110656081221
0.111106645044
0.11157384816
0.112053023145
0.112538077836
0.113020408217
0.113485535935
0.113903800479
0.114209820579
0.114257201342
0.113743820787
0.112076418991
0.108236958732
0.100563584513
0.0868086266508
0.065189688692
0.0408914611383
0.0406729695282
0.0630587256358
0.0828596959986
0.0951628020888
0.101812065077
0.105132516267
0.106676071843
0.107357720047
0.107656348128
0.107800573388
0.107890350331
0.107967353014
0.108048735484
0.108142164668
0.108251751281
0.10838028349
0.108530765108
0.108733866104
0.109003987517
0.109337805101
0.10972248359
0.110144091705
0.110595430276
0.111073315688
0.111574734758
0.112095526169
0.112630169467
0.113171638216
0.11371036211
0.114230801062
0.114701888152
0.115056062178
0.115143175513
0.114655078691
0.112989280801
0.109117001136
0.101362509245
0.0874638790257
0.0655881099206
0.0409314606237
0.0406753519472
0.0630758658852
0.0828719445515
0.0951651395645
0.101805682932
0.105120994486
0.106662910516
0.107345739737
0.107647568847
0.107796545887
0.107892436427
0.107976939403
0.10806734869
0.108171530939
0.108293821001
0.108437442273
0.10861753211
0.108867551089
0.109188512229
0.109570775131
0.109998922328
0.110463089517
0.110959820145
0.111486860812
0.112040851285
0.112616868126
0.11320849529
0.113807769235
0.114404147216
0.114981006571
0.115505889267
0.115909094098
0.11603681849
0.115575025667
0.113912100213
0.110008401043
0.10217378874
0.0881309332693
0.0659941327625
0.0409719619067
0.0406776464303
0.063090967134
0.0828782080918
0.0951561441111
0.101782626522
0.105088510783
0.106625861658
0.107308076984
0.107612051928
0.107765132113
0.107866681494
0.10795830873
0.108057391868
0.108171971367
0.108306616674
0.108466679318
0.108687088971
0.108983459899
0.109351069167
0.109775524426
0.110243204319
0.110748989589
0.111291202898
0.111867597371
0.112474222454
0.113105373687
0.113753755496
0.114410473381
0.115064026227
0.115696766512
0.116274971358
0.116727061174
0.116896049516
0.116462688331
0.114806954821
0.110878618022
0.102972362999
0.0887933930542
0.0664005737362
0.0410124654119
0.0406796555941
0.0631004236398
0.0828667489471
0.0951140341541
0.101711983308
0.104997395685
0.106522947106
0.107200250109
0.107503884465
0.107659519023
0.107765583857
0.107863316657
0.107970043275
0.10809391291
0.108239855093
0.10842438359
0.108684918979
0.109024010085
0.109431752256
0.109892089314
0.110395962188
0.110941312835
0.111527028888
0.112150525956
0.112807251874
0.113490770567
0.114192929556
0.114903941116
0.115611434596
0.116296907973
0.116925719949
0.11742509045
0.117636030559
0.117235849404
0.115598153306
0.111663393544
0.103710144967
0.0894220026951
0.06679650472
0.0410523195172
0.0406807212461
0.0630930586892
0.0828040312076
0.0949802066765
0.101514061443
0.104753320553
0.106251017226
0.106914249312
0.107212416464
0.107367466029
0.107475714767
0.107577431782
0.107689608078
0.10782037176
0.107975283333
0.108189977298
0.108485708209
0.108860146069
0.109299163851
0.109788416756
0.110323182575
0.110902867963
0.111526347424
0.112190657413
0.112890733158
0.113619490947
0.114367959207
0.1151255617
0.115879260096
0.116610066164
0.117283130474
0.11782584573
0.118079685576
0.117722344877
0.116125814611
0.112225045838
0.104282304356
0.0899520958832
0.0671585153299
0.0410901728851
0.0406787438028
0.0630355309011
0.0825996443457
0.094607424422
0.100998077643
0.104137545827
0.105575621025
0.10620752221
0.106490962785
0.106639916594
0.106746279192
0.10684823624
0.106961936989
0.107095330358
0.107260229371
0.1074995925
0.107822182732
0.108220931454
0.108679798963
0.109188188573
0.109744227615
0.110347834613
0.110997636938
0.111690422788
0.112420781633
0.11318111101
0.113961676434
0.114751333047
0.115536750341
0.116299094282
0.117004525886
0.117583025408
0.117880998211
0.117583809837
0.116071675933
0.112283669841
0.104469503683
0.0902448515695
0.0674344457531
0.0411228907738
0.0406670184379
0.0628331094127
0.0820257715121
0.0936532838245
0.0997434896255
0.102684200939
0.104007717221
0.104580121672
0.104834443694
0.104968969746
0.105067277239
0.105163692731
0.105272752721
0.105401969814
0.105572174537
0.10582349092
0.106157806653
0.106564486459
0.107027344951
0.107539311369
0.108100044861
0.108709443484
0.109365781738
0.110065925533
0.110804411119
0.111573273402
0.112362071719
0.113159522041
0.113952589247
0.114723512212
0.115441232496
0.11604193559
0.11638396965
0.11617257858
0.114814389894
0.111273775413
0.103804076313
0.0899789536238
0.0674848373212
0.0411405065311
0.0406249788268
0.0622370640104
0.0805588163739
0.0913968894359
0.0969144813391
0.0995003975822
0.100629817637
0.101105078121
0.101312317157
0.101422381377
0.10150511992
0.101588721252
0.101685173711
0.101801194256
0.101966721967
0.1022132701
0.102539983277
0.10293384988
0.103379951719
0.103873656106
0.104415296124
0.105004453482
0.105638811536
0.106315930241
0.107030907558
0.107775434361
0.108538421268
0.109309174117
0.110075696812
0.110822375993
0.111522997257
0.112124388919
0.112506083027
0.11241077776
0.111300850435
0.108206298783
0.101427550658
0.0885195288363
0.0670060686304
0.0411172556768
0.0404936411786
0.060650385824
0.0771111778693
0.0864738623729
0.0910215392852
0.0930523797058
0.093897907267
0.0942386031537
0.0943826706884
0.0944594812068
0.0945195664929
0.0945829098076
0.094658162483
0.0947506355264
0.0948882151032
0.0951027367316
0.0953939247093
0.0957479006518
0.0961495669158
0.0965949963578
0.0970847112598
0.0976179847826
0.098191187432
0.0988034645416
0.099451981892
0.100127365313
0.100818196838
0.101515525062
0.102209141748
0.102886547461
0.103528159451
0.104095520185
0.104498934961
0.104539430543
0.103775953796
0.101370969959
0.0957659624508
0.0845943793659
0.0652842986357
0.0409833990291
0.0401302046332
0.0568398111511
0.0697339047077
0.0766623573249
0.0797865408748
0.0810804250643
0.0815812182736
0.0817706212686
0.0818474961242
0.0818892364101
0.0819242215388
0.0819635758107
0.0820123993993
0.08207426746
0.0821695114306
0.0823287986072
0.0825560484593
0.0828405417997
0.0831666249339
0.0835292676275
0.0839286895951
0.08436423743
0.0848306700336
0.0853273616939
0.0858578349144
0.086409894489
0.0869727066005
0.0875403689722
0.088105130828
0.0886576532023
0.0891856602143
0.0896682361177
0.0900527593321
0.0902164464861
0.0898603002854
0.0883704062725
0.0844925828867
0.0761735937274
0.0610402684739
0.0405932255931
0.0393663983484
0.0496231935549
0.0565571174524
0.0600589932927
0.0614619670845
0.0619784072628
0.0621578708728
0.0622204507233
0.0622452552528
0.0622599193338
0.0622738217117
0.062290709343
0.0623125166101
0.062340689011
0.0623770443729
0.0624414823498
0.0625544745376
0.0627187893795
0.0629170972352
0.0631390030595
0.0633831994648
0.063649088539
0.0639322060952
0.0642296554793
0.0645509379015
0.0648858316042
0.0652245626312
0.0655656481682
0.0659051075108
0.0662391860055
0.0665631817841
0.0668693336107
0.0671401879885
0.0673322668183
0.067319854859
0.0668139807415
0.0651218951794
0.0609564706244
0.0528505577326
0.0397693896632
0.039173297088
0.0394161240677
0.0401115323947
0.0404289236738
0.0405393062038
0.0405747433905
0.0405863961696
0.0405911114252
0.0405940383513
0.0405967205818
0.04059964161
0.0406029839988
0.0406068465375
0.0406113013639
0.0406164147092
0.0406223649827
0.0406297563495
0.0406396983027
0.0406537371002
0.0406736041165
0.0406985180788
0.0407262937682
0.0407560092764
0.0407867561225
0.0408194916861
0.0408536167268
0.0408876773988
0.0409215852885
0.0409550356764
0.040987691754
0.041019404536
0.0410497302322
0.0410778557166
0.0411013959339
0.0411124523025
0.0410868340397
0.0409570984731
0.0405771934461
0.0397640194621
0.0392425749685
0.0401719281171
0.0464953582253
0.0503809732639
0.0521290055388
0.0528185454693
0.0530712233044
0.0531615367009
0.0531972287306
0.0532161423797
0.0532309717919
0.0532455328146
0.0532609739022
0.0532775673619
0.0532953613853
0.053314322401
0.0533343930523
0.0533554980418
0.0533775515484
0.0534004510334
0.0534240916165
0.0534482275279
0.0534728894392
0.0534979347767
0.0535230662669
0.0535481799174
0.053573113837
0.0535977080649
0.0536218084697
0.0536452646719
0.053667887967
0.0536892573307
0.0537080462147
0.0537197850926
0.053710547592
0.0536381662104
0.0533865883762
0.0526644299238
0.0508290055482
0.0467787472265
0.0402000412688
0.0464782718935
0.0484267643763
0.0526695488479
0.054747116689
0.0555990344625
0.0559181186688
0.0560308306613
0.056070027828
0.0560848316761
0.0560921692913
0.0560975240909
0.0561025949388
0.0561078813825
0.0561135225658
0.0561195492025
0.056125958851
0.056132736222
0.056139858971
0.0561472981203
0.0561550188924
0.0561629745116
0.0561711362369
0.0561794563436
0.0561878664665
0.0561963140987
0.0562047404596
0.0562130836262
0.0562212732349
0.0562292079319
0.0562366684498
0.056243021771
0.0562462716739
0.0562401770601
0.056206050699
0.0560910157563
0.0557558865883
0.0548664791844
0.0527300218723
0.0484324806422
0.0463570039968
0.0503523994703
0.0526636949612
0.0577820462486
0.0604876819064
0.0616927942076
0.0621822908798
0.0623680378978
0.0624351501357
0.062459142773
0.0624684479221
0.0624731277052
0.0624765381425
0.0624797505414
0.0624830880959
0.06248664267
0.0624904347825
0.062494462972
0.0624987171685
0.0625031826177
0.0625078404075
0.0625126696853
0.0625176471414
0.0625227434154
0.0625279232782
0.0625331511526
0.0625383883322
0.0625435883237
0.0625486804149
0.0625535120846
0.0625576582029
0.0625598372405
0.0625561814841
0.0625354910701
0.0624668592044
0.0622704215303
0.0617544795589
0.06050211632
0.0577341550745
0.0525730677088
0.0501044282424
0.0520944840562
0.0547373578414
0.0604835205348
0.0636688400141
0.0651685341955
0.0658130658459
0.0660709040345
0.0661679570764
0.0662029001703
0.0662153074903
0.0662200445122
0.0662223498871
0.0662239879287
0.066225521968
0.0662271265231
0.0662288526467
0.0662307142349
0.0662327130141
0.0662348462691
0.0662371083075
0.0662394917522
0.0662419853927
0.0662445748374
0.0662472438228
0.0662499717509
0.0662527328941
0.0662554862819
0.0662581442827
0.0662604711267
0.066261769271
0.0662599757192
0.0662491380944
0.0662129236033
0.0661087944651
0.0658335095036
0.0651550680844
0.0636028313825
0.0603568134623
0.054580590675
0.0517687708517
0.0527815000816
0.0555870548892
0.0616859484436
0.0651656055482
0.0668618228127
0.0676179897025
0.0679314198307
0.0680530634237
0.0680975796659
0.0681129570873
0.068117958242
0.0681194518313
0.0681198363174
0.0681199074254
0.0681199231657
0.0681199662789
0.0681200659431
0.0681202347219
0.0681204800419
0.0681208066886
0.0681212178959
0.0681217138573
0.0681222929032
0.0681229510917
0.0681236798932
0.0681244625914
0.0681252594467
0.0681259611246
0.0681262460815
0.0681251571645
0.0681199278699
0.0681028352995
0.0680534503876
0.0679206165958
0.0675852695879
0.0667912951895
0.0650417609066
0.0615069554202
0.0553906981636
0.0524155501132
0.0530334562525
0.0559050756691
0.0621739251097
0.0658083058716
0.067616034686
0.0684399090391
0.0687890714426
0.068927353531
0.0689786585779
0.0689962567135
0.0690015173968
0.0690024609463
0.0690019553862
0.0690009762757
0.0689998486275
0.0689986812442
0.0689975156969
0.0689963729423
0.0689952678752
0.0689942129125
0.068993218994
0.0689922949226
0.0689914475922
0.0689906815077
0.0689899961362
0.0689893804191
0.0689887937812
0.0689881076035
0.0689869312772
0.0689841088959
0.0689763589239
0.0689547232501
0.0688960683196
0.0687439148495
0.068370243369
0.0675069403611
0.0656470952331
0.0619634526242
0.055687314692
0.052647714209
0.0531237421961
0.0560173335172
0.0623588921795
0.0660651115446
0.067928294114
0.0687878533398
0.0691568088653
0.0693047106008
0.0693600907366
0.069379070996
0.0693845116027
0.0693851231759
0.0693840669984
0.0693824351642
0.0693805975522
0.0693786808613
0.0693767352054
0.0693747871827
0.0693728565546
0.069370960585
0.0693691150992
0.0693673341246
0.0693656297289
0.0693640111736
0.0693624823211
0.0693610347656
0.0693596260508
0.0693581130804
0.0693560578559
0.0693521741346
0.0693428561483
0.0693184008866
0.0692541253169
0.0690906850765
0.0686956451339
0.0677957612392
0.0658814138169
0.0621298319858
0.0557874634877
0.0527264131693
0.0531596830664
0.0560563480028
0.0624255924108
0.0661615654677
0.0680492200914
0.0689253610461
0.0693039177921
0.0694566462432
0.0695141177863
0.0695338032381
0.0695393078558
0.0695397021083
0.0695383062064
0.0695362776416
0.069534012458
0.0695316482787
0.0695292406992
0.0695268200347