/*--------------------------------*- C++ -*----------------------------------*\
| =========                 |                                                 |
| \\      /  F ield         | foam-extend: Open Source CFD                    |
|  \\    /   O peration     | Version:     4.1                                |
|   \\  /    A nd           | Web:         http://www.foam-extend.org         |
|    \\/     M anipulation  |                                                 |
\*---------------------------------------------------------------------------*/
FoamFile
{
    version     2.0;
    format      ascii;
    class       volScalarField;
    location    "0.4";
    object      k;
}
// * * * * * * * * * * * * * * * * * * * * * * * * * * * * * * * * * * * * * //

dimensions      [0 2 -2 0 0 0 0];

internalField   nonuniform List<scalar> 
96000
(
0.0111132582437
0.0111619544287
0.0113038179084
0.011369700183
0.0113930973362
0.0114006774546
0.0114030742701
0.0114038968421
0.0114042709498
0.0114045339212
0.011404780802
0.011405037991
0.0114053118551
0.0114056035197
0.011405912448
0.0114062375765
0.0114065775246
0.0114069307159
0.0114072953256
0.0114076694262
0.0114080496797
0.0114084357295
0.0114088248901
0.0114092133448
0.0114095991221
0.0114099797184
0.0114103526758
0.011410715599
0.0114110661032
0.0114114203151
0.0114117541674
0.011412028465
0.0114121300329
0.0114116430836
0.0114092582767
0.0114009983015
0.0113754241713
0.0113047174866
0.011155870458
0.0111134593934
0.0111623940385
0.00996058184707
0.0109190114775
0.0113981879272
0.0115929218201
0.0116660132513
0.0116919361037
0.011701000853
0.0117044380885
0.0117061437984
0.0117073774348
0.0117085342566
0.0117097312536
0.0117110031407
0.0117123586222
0.0117137984175
0.0117153197578
0.011716918067
0.0117185868738
0.0117203186316
0.0117221012195
0.0117239289776
0.0117257923206
0.0117276736893
0.0117295620233
0.0117314434043
0.0117333033581
0.0117351249451
0.0117368833951
0.0117385257088
0.0117399008561
0.0117405402034
0.0117389843929
0.0117308961601
0.0117040537714
0.0116265501296
0.0114217189014
0.0109269949443
0.0099620420588
0.0111646730371
0.0113037242217
0.0109176054868
0.0125793078377
0.013446750128
0.013838732633
0.0140030164547
0.0140672334002
0.0140909646027
0.0140994760598
0.014102647669
0.0141040553271
0.0141049283649
0.014105669092
0.0141064080451
0.0141071875009
0.014108021947
0.0141089161544
0.014109870993
0.0141108848125
0.0141119544568
0.0141130742002
0.0141142400397
0.0141154451548
0.0141166789637
0.0141179319752
0.0141191921803
0.0141204439974
0.0141216612908
0.0141227854732
0.0141236556207
0.0141237949168
0.0141217997751
0.0141136781578
0.0140887404477
0.0140202396509
0.0138467715055
0.0134390788935
0.0125525493673
0.0108919351224
0.011300723542
0.011369293655
0.011395704469
0.0134453880989
0.0145658061636
0.0151068591272
0.0153499603655
0.0154515408893
0.0154911974948
0.0155057517148
0.0155108179757
0.0155124913279
0.0155130085664
0.0155131475288
0.0155131728625
0.0155131749463
0.0155131873035
0.015513224363
0.0155132937064
0.0155133996983
0.015513544923
0.0155137302516
0.0155139560773
0.0155142211216
0.0155145216274
0.0155148528099
0.0155152064183
0.0155155666405
0.0155158955662
0.0155160885301
0.0155158405524
0.0155142637575
0.015508865852
0.01549298862
0.0154500248487
0.0153415678643
0.0150865088362
0.0145277671999
0.0133894198309
0.0113503585262
0.0113630594015
0.0113925623668
0.0115898285423
0.0138364486923
0.0151058277455
0.0157450301793
0.0160452266378
0.0161763000052
0.0162295579198
0.0162496852494
0.0162566796778
0.0162587531841
0.0162590592086
0.0162587408941
0.0162582005164
0.0162575794138
0.0162569310937
0.0162562794721
0.0162556382089
0.0162550167813
0.0162544225798
0.0162538614043
0.0162533380012
0.0162528555789
0.0162524154269
0.0162520167127
0.0162516538713
0.0162513094864
0.0162509317244
0.0162503666457
0.0162491638103
0.0162460436066
0.0162375426117
0.0162148028633
0.0161567714087
0.016017242465
0.0157038098722
0.0150467853515
0.013762031698
0.011533584055
0.0113849391322
0.0114001012803
0.011662636544
0.0140002185742
0.0153482951489
0.0160445517334
0.0163805927422
0.0165314603065
0.0165944218564
0.0166187762382
0.0166273567886
0.0166298526402
0.0166300983027
0.016629523258
0.0166286426715
0.0166276411094
0.0166265891943
0.0166255186832
0.0166244478975
0.01662338994
0.0166223554296
0.0166213532989
0.0166203911249
0.0166194749553
0.0166186088892
0.0166177942758
0.0166170264649
0.0166162851861
0.0166155051233
0.0166144894742
0.0166126683883
0.0166084567244
0.0165976741947
0.0165699386004
0.0165013452346
0.0163411616374
0.0159913444677
0.0152775940191
0.0139161725425
0.0116012614533
0.0113919985849
0.0114024898931
0.0116884404542
0.0140641708622
0.0154495165657
0.0161752199164
0.0165310401614
0.0166934592479
0.0167623771642
0.0167894613251
0.0167991367541
0.0168019770871
0.0168022468223
0.0168015646763
0.0168005236002
0.0167993390885
0.0167980943688
0.0167968269874
0.0167955585706
0.0167943046017
0.0167930776585
0.0167918884045
0.016790745897
0.0167896574825
0.0167886283821
0.0167876605406
0.0167867488452
0.0167858696754
0.0167849465494
0.016783750715
0.0167816283774
0.0167767895982
0.0167645964489
0.0167337455519
0.0166587230778
0.0164864712242
0.0161164983048
0.0153733533494
0.0139755758676
0.0116246221554
0.0113942766627
0.0114033160862
0.0116974610483
0.0140877711213
0.0154889777523
0.0162282454728
0.0165937532129
0.016762124015
0.0168342569271
0.0168628890267
0.0168732308082
0.0168763190158
0.0168766545022
0.0168759645732
0.0168748887994
0.016873662098
0.0168723760245
0.0168710721012
0.0168697742061
0.0168684993191
0.0168672610852
0.0168660709259
0.0168649383502
0.0168638708779
0.0168628735978
0.0168619478454
0.0168610870466
0.0168602640909
0.0168593938545
0.0168582258149
0.016856052859
0.0168509613217
0.016838049593
0.0168055097108
0.0167270022098
0.0165483817572
0.0161682235897
0.0154110610233
0.013997298573
0.0116323294886
0.0113951261875
0.0114036979177
0.0117008821081
0.0140962094689
0.0155034136038
0.0162482263776
0.0166179476811
0.0167890434708
0.0168627235324
0.0168921449685
0.0169028592361
0.0169061165783
0.0169065326219
0.0169058900127
0.0169048534705
0.0169036691683
0.016902433957
0.0169011921329
0.0168999692128
0.0168987832014
0.0168976483289
0.0168965762211
0.0168955762129
0.0168946552716
0.0168938175407
0.016893062924
0.0168923827047
0.0168917462176
0.0168910615292
0.0168900634484
0.0168880120605
0.0168829219238
0.0168697459169
0.0168364107451
0.0167561698107
0.0165743873982
0.0161893148339
0.0154256852134
0.0140050562036
0.0116348059476
0.0113955861513
0.0114039709045
0.0117025847027
0.0140993331355
0.0155083953197
0.016255112936
0.0166264091193
0.0167985960752
0.0168729425711
0.0169027374118
0.0169136572648
0.0169170371442
0.0169175417732
0.0169169792433
0.0169160270068
0.0169149376969
0.0169138117147
0.0169126955027
0.0169116159498
0.0169105918944
0.0169096379326
0.0169087655998
0.0169079836714
0.0169072980814
0.0169067114508
0.0169062216286
0.0169058171848
0.0169054636803
0.016905063263
0.0169043399692
0.0169025323692
0.0168976110751
0.0168844443993
0.0168508111928
0.0167697505665
0.0165863852392
0.016198845704
0.0154320235094
0.0140081593788
0.0116357248202
0.0113959712603
0.0114042299832
0.0117038248563
0.0141007056669
0.0155099986073
0.0162570939521
0.0166288021188
0.0168013309882
0.0168759270494
0.016905893912
0.0169169384657
0.0169204207612
0.0169210229939
0.0169205638964
0.0169197274191
0.0169187702834
0.0169177956569
0.0169168519325
0.0169159673539
0.0169151615878
0.0169144495338
0.0169138424883
0.0169133484172
0.0169129718546
0.0169127134231
0.0169125683577
0.0169125219359
0.0169125355084
0.0169125054046
0.0169121464403
0.0169106806862
0.0169060472329
0.0168930563433
0.0168593878954
0.0167779420407
0.0165936860633
0.016204678098
0.0154358973043
0.0140100387638
0.0116363324127
0.0113963799005
0.0114045020819
0.0117050002764
0.0141015553689
0.0155104556651
0.0162573159881
0.0166289533642
0.0168015048584
0.0168761704845
0.0169062235803
0.0169173620786
0.0169209453579
0.0169216591475
0.0169213262254
0.0169206343225
0.0169198433199
0.0169190589691
0.0169183316962
0.0169176912392
0.0169171581972
0.0169167477995
0.0169164710182
0.0169163348009
0.0169163419395
0.0169164905809
0.0169167727486
0.0169171697536
0.0169176380688
0.0169180677257
0.0169181643991
0.0169171350347
0.0169128911717
0.0169001935832
0.016866638148
0.0167850070394
0.0166001301778
0.0162099907041
0.0154396039375
0.0140120259371
0.0116371155774
0.0113968485667
0.0114047942024
0.01170623189
0.0141022875282
0.0155105457128
0.0162569224713
0.0166282922512
0.016800736527
0.0168754009219
0.0169055106872
0.0169167389169
0.0169204336795
0.0169212785078
0.0169210976087
0.016920581565
0.0169199932716
0.0169194412366
0.0169189781834
0.0169186355981
0.0169184351962
0.016918392613
0.0169185184419
0.0169188184041
0.0169192931824
0.0169199379158
0.0169207407312
0.0169216781573
0.0169227008951
0.0169236917761
0.0169243465244
0.016923856366
0.0169201049865
0.0169078036131
0.0168744636105
0.0167927467042
0.0166073366341
0.016216123035
0.0154441221522
0.0140147154505
0.0116383169465
0.0113973967342
0.0114051081234
0.0117075589663
0.0141030373689
0.0155105374687
0.0162563193292
0.0166273376339
0.0167996230772
0.0168742628346
0.016904425878
0.0169157536054
0.0169195783134
0.0169205791291
0.0169205808667
0.0169202768942
0.0169199333899
0.0169196620098
0.0169195181773
0.016919535474
0.0169197369814
0.0169201388583
0.0169207512803
0.016921578525
0.0169226187491
0.0169238634662
0.0169252960943
0.016926887396
0.0169285811726
0.0169302518104
0.0169315836945
0.0169317506441
0.0169286060444
0.0169168074436
0.0168837741896
0.0168020350045
0.0166161076399
0.0162237638908
0.0154499920276
0.0140184809288
0.0116401165674
0.0113980391316
0.0114054439247
0.0117089947516
0.0141038522804
0.015510526249
0.0162556527622
0.0166262792157
0.0167983857575
0.0168729978132
0.0169032231818
0.0169146680664
0.0169186469588
0.01691983383
0.0169200540779
0.0169200042146
0.0169199542145
0.0169200194363
0.0169202585241
0.0169207075943
0.0169213914145
0.0169223268361
0.0169235235965
0.0169249842923
0.0169267040782
0.0169286701234
0.0169308601792
0.0169332380608
0.0169357392933
0.0169382282505
0.0169403761449
0.0169413370058
0.0169389303034
0.01692775379
0.0168951240012
0.0168134217538
0.0166269727376
0.0162334050611
0.0154576349215
0.0140236491257
0.0116426820827
0.0113987892244
0.0114058011087
0.0117105443357
0.0141047518827
0.0155105507569
0.0162549815664
0.0166251933263
0.0167971142402
0.0168717049021
0.0169020082641
0.0169135931262
0.0169177551217
0.0169191629435
0.0169196429318
0.0169198953442
0.0169201946418
0.0169206605782
0.0169213556567
0.0169223190729
0.0169235776885
0.0169251492734
0.0169270431328
0.0169292599303
0.0169317912833
0.0169346191793
0.0169377145739
0.0169410329315
0.0169444998459
0.0169479677766
0.0169510925749
0.0169530058004
0.0169514912492
0.0169410871297
0.0169089986731
0.0168276400255
0.0166410519533
0.0162466737356
0.0154685787089
0.0140315309607
0.0116463136291
0.0113996606157
0.0114061788037
0.0117122090589
0.0141057458901
0.0155106305304
0.0162543349897
0.0166241175675
0.0167958527435
0.0168704334352
0.0169008346778
0.0169125862507
0.0169169643376
0.016918632549
0.0169194187518
0.0169200277296
0.0169207392699
0.0169216783488
0.0169229121021
0.0169244834695
0.0169264219147
0.0169287464283
0.0169314659252
0.0169345788734
0.0169380727542
0.016941923413
0.016946093682
0.0169505290037
0.0169551431033
0.0169597746106
0.0169640663962
0.0169671375677
0.0169669174502
0.016958284868
0.0169281356927
0.0168483417912
0.0166623141727
0.016267218499
0.0154863984695
0.014045213434
0.0116530448315
0.0114006779125
0.0114065758408
0.0117139879029
0.0141068396533
0.0155107779475
0.0162537318357
0.0166230760091
0.0167946295424
0.01686921515
0.0168997373333
0.0169116856113
0.0169163164185
0.0169182886925
0.0169194325882
0.016920458347
0.0169216520668
0.0169231449283
0.0169250096156
0.0169272936156
0.0169300296215
0.0169332382343
0.016936928072
0.0169410951477
0.016945722134
0.0169507776144
0.0169562147301
0.0169619671927
0.0169679385546
0.0169739707325
0.0169800461298
0.0169857074402
0.0169885538658
0.016982769425
0.016955037672
0.0168769997471
0.016691590384
0.0162956383557
0.0155117596956
0.0140654567143
0.0116640920288
0.0114018919049
0.0114069907563
0.0117158777601
0.0141080356789
0.0155110018245
0.0162531864283
0.0166220872487
0.0167934665498
0.016868074698
0.0168987434827
0.0169109212476
0.0169158446247
0.0169181684739
0.0169197261531
0.0169212344393
0.0169229868843
0.016925122012
0.0169277191323
0.0169308312321
0.0169344949957
0.0169387331367
0.0169435541362
0.0169489512795
0.0169549016519
0.0169613652888
0.0169682846284
0.0169755983564
0.0169834700055
0.01699249447
0.0170022790417
0.017011531417
0.0170178009657
0.0170151060557
0.0169900092654
0.0169138222489
0.0167290226792
0.0163320838195
0.0155448572748
0.0140926736255
0.0116801666667
0.0114034258242
0.0114074218358
0.0117178731146
0.0141093337333
0.0155113083205
0.0162527103692
0.01662116689
0.0167923823082
0.016867032935
0.0168978761338
0.0169103184867
0.0169155770101
0.016918303254
0.016920334844
0.0169223963239
0.0169247899992
0.0169276630424
0.0169311026361
0.0169351683845
0.0169399018843
0.016945328582
0.0169514570295
0.0169582774611
0.0169657605783
0.0169738608459
0.0169825491582
0.0169927762057
0.0170047009197
0.0170179038097
0.0170317178479
0.0170449149328
0.017054824932
0.0170554216614
0.0170329899092
0.016958610509
0.0167742924997
0.0163761159482
0.0155852756695
0.0141266894837
0.0117016925273
0.0114055769652
0.0114078663667
0.0117199642706
0.014110730946
0.0155117014538
0.0162523131496
0.0166203282642
0.0167913927918
0.0168661077519
0.0168971548535
0.0169098986659
0.0169155370151
0.016918719075
0.0169212879515
0.0169239773347
0.0169270997405
0.016930812463
0.0169352119776
0.0169403658074
0.016946321536
0.0169531080613
0.0169607342108
0.0169691870352
0.0169784409392
0.0169887458482
0.0170013353517
0.0170160966991
0.0170326086353
0.0170503453255
0.0170685022624
0.0170857488232
0.0170993369088
0.0171031402109
0.0170832741839
0.0170105456189
0.0168265172858
0.016426843535
0.015632089188
0.014166652429
0.0117282083862
0.0114087862391
0.0114083211108
0.0117221410142
0.0141122223531
0.0155121829788
0.0162520020241
0.0166195823499
0.0167905113617
0.0168653140138
0.0168965956437
0.0169096789009
0.0169157430823
0.0169194360809
0.0169226078374
0.0169260027031
0.0169299450114
0.0169346038107
0.0169400864676
0.016946469894
0.0169538088586
0.0169621364567
0.0169714623682
0.0169817890132
0.0169936675722
0.0170085422212
0.0170260557351
0.0170458165176
0.017067231921
0.017089610438
0.0171120674533
0.0171332380127
0.0171503554917
0.0171572488908
0.0171398715525
0.0170687322239
0.0168849012456
0.0164835495662
0.0156845627512
0.0142117233553
0.0117586783261
0.0114133798928
0.011408786978
0.0117243997126
0.0141138043537
0.0155127534855
0.0162517821957
0.0166189376634
0.0167897484802
0.0168646631574
0.0168962104198
0.0169096714246
0.0169162078247
0.0169204674786
0.0169243086355
0.0169284879414
0.0169333432828
0.0169390572417
0.0169457498309
0.0169535089406
0.0169623977608
0.016972454744
0.0169837146697
0.0169970301668
0.0170138419229
0.0170339198446
0.0170567473695
0.0170816805307
0.0171079439701
0.0171347694396
0.0171613087949
0.0171862642627
0.0172069009648
0.0172169748379
0.0172022251128
0.0171327934571
0.0169491877235
0.0165460258217
0.0157424545824
0.0142615580269
0.0117924512894
0.0114188759913
0.0114092588275
0.0117267226212
0.0141154653955
0.0155134089434
0.0162516553435
0.0166183992902
0.0167891108799
0.01686416233
0.0168960060584
0.0169098825038
0.0169169367786
0.0169218180792
0.0169263945309
0.016931436796
0.0169372981448
0.0169441765908
0.0169522066371
0.0169614887647
0.0169720961031
0.0169840955595
0.0169984373146
0.0170168332133
0.017039099453
0.0170647050602
0.0170928909203
0.0171227738987
0.0171535733986
0.0171846410934
0.0172152543225
0.0172441622615
0.0172685839634
0.0172821358868
0.0172702856062
0.0172027533679
0.0170194237139
0.01661429019
0.0158056760387
0.0143158987108
0.0118291450792
0.011424855021
0.0114097325348
0.0117290888953
0.0141171908031
0.015514141833
0.0162516192071
0.016617967824
0.0167886001101
0.0168638126839
0.0168959824982
0.0169103103641
0.0169179261407
0.0169234818191
0.0169288570184
0.0169348381822
0.0169417958477
0.0169499453952
0.0169594376486
0.0169703873581
0.0169828938675
0.0169977899201
0.0170172288992
0.0170411689602
0.0170691005889
0.0171001671204
0.0171333569004
0.0171678525249
0.0172030820447
0.0172385398786
0.0172735339181
0.0173067685098
0.0173353594477
0.0173527457931
0.0173440919176
0.0172786597367
0.0170956638542
0.0166884115525
0.0158743092246
0.0143746755876
0.011868379682
0.0114311634856
0.0114102057906
0.011731483191
0.0141189651511
0.015514940614
0.0162516654431
0.0166176361024
0.016788208515
0.0168636048436
0.0168961278558
0.0169109400421
0.0169191573845
0.0169254361338
0.0169316690011
0.0169386599494
0.0169467986403
0.0169563196851
0.0169673919459
0.0169801525988
0.0169951637845
0.0170149899643
0.0170399478581
0.017069592014
0.0171030261627
0.0171391117244
0.0171769746541
0.0172160736369
0.0172559810251
0.0172962025826
0.0173359910553
0.0173739619057
0.017407105536
0.0174286683738
0.0174234949724
0.0173603651843
0.0171777940728
0.0167683709419
0.0159485524578
0.0144384996979
0.011910836381
0.0114378705427
0.0114107001734
0.0117338846383
0.014120766473
0.0155157839378
0.0162517717093
0.0166173789975
0.0167879072063
0.016863505638
0.0168964043563
0.0169117287728
0.0169205822297
0.0169276265445
0.0169347689757
0.0169428326128
0.0169522279518
0.0169632104792
0.0169759703549
0.0169907871086
0.0170102725862
0.0170354602756
0.0170660697367
0.017101215576
0.0171396615329
0.0171804399064
0.0172230133876
0.0172669947006
0.0173119575598
0.0173573432628
0.0174023167469
0.0174453909195
0.0174834240305
0.0175094615218
0.0175080149558
0.0174473611211
0.0172652858054
0.0168536272286
0.0160278443817
0.0145069063861
0.0119566898849
0.0114451026364
0.0114112120157
0.0117362696052
0.0141225609538
0.0155166263878
0.0162518787215
0.0166171232497
0.0167876107222
0.0168634194365
0.0168967076369
0.0169125640084
0.0169220797372
0.0169299229602
0.0169380165461
0.0169472040069
0.0169579180547
0.0169704366838
0.0169850014518
0.0170033860578
0.0170279552559
0.0170586273034
0.0170946809534
0.0171348158183
0.0171779158723
0.0172234087224
0.0172709447072
0.0173201436308
0.017370511977
0.0174214009832
0.0174718789021
0.0175203519912
0.0175635418525
0.0175942848998
0.0175967466946
0.0175386793932
0.0173571077054
0.0169430713177
0.0161109666892
0.0145784658194
0.0120044497826
0.0114525999383
0.0114117424045
0.0117386046683
0.014124279525
0.0155173521756
0.0162518205974
0.0166166587084
0.0167870749693
0.0168630777996
0.0168967514611
0.0169131450634
0.0169233357536
0.0169319972272
0.0169410680918
0.0169514129298
0.0169634875314
0.0169776004344
0.016994566854
0.0170176934343
0.0170474421894
0.0170834397518
0.0171244421429
0.0171691344371
0.017216834052
0.0172672215017
0.0173199784048
0.0173746646327
0.0174306979774
0.0174873334494
0.0175435401952
0.0175976164079
0.0176461419491
0.0176817401115
0.0176882243626
0.0176328125655
0.017451753386
0.0170352616479
0.0161966302054
0.0146521553381
0.0120534123587
0.0114602016287
0.0114122697682
0.0117408262748
0.0141257466689
0.015517638756
0.0162511264399
0.0166153918342
0.0167856187689
0.0168617419229
0.0168957592168
0.0169126679941
0.0169235230957
0.0169329992453
0.0169430488046
0.0169545567879
0.016968002543
0.0169837646335
0.0170045582271
0.0170324166976
0.0170672553741
0.0171081180517
0.0171535441358
0.0172026087308
0.0172549760738
0.0173104071019
0.0173685429317
0.0174288634301
0.0174906935782
0.0175531921669
0.0176152292834
0.0176749936446
0.0177289268877
0.0177694462428
0.0177800278605
0.0177273761996
0.0175469830124
0.0171282347602
0.0162832758352
0.0147269143038
0.0121031859676
0.0114679018745
0.0114127743674
0.0117427687791
0.0141264615808
0.0155165664665
0.0162484779981
0.0166116923488
0.0167814004091
0.0168574390998
0.016891678194
0.016909026684
0.016920493194
0.0169307402573
0.0169417274692
0.0169543572683
0.0169691417992
0.0169872620807
0.0170122623019
0.0170447668389
0.0170842736257
0.0171294021697
0.0171788775976
0.0172322185508
0.0172892504972
0.0173497279946
0.0174132290342
0.0174791518366
0.0175467303647
0.0176150282104
0.0176828186366
0.0177481884767
0.0178074567382
0.0178528653731
0.0178676065246
0.0178179457026
0.017638695348
0.0172184445393
0.0163681187834
0.0148007300005
0.0121529918827
0.0114756066344
0.0114132143349
0.0117439406334
0.0141249775287
0.0155115834887
0.0162403393042
0.0166012961631
0.0167696871734
0.0168451610478
0.0168793411266
0.0168969537862
0.0169089027455
0.0169198068157
0.0169316172891
0.016945246821
0.0169612646577
0.0169825728851
0.0170115999536
0.0170483687607
0.0170919016077
0.0171406844881
0.0171938749258
0.0172512740746
0.0173127543491
0.0173780322215
0.0174466220596
0.0175178454377
0.0175908476667
0.0176646017223
0.0177377944518
0.0178084305028
0.0178727452774
0.0179228794959
0.0179418667366
0.0178957157571
0.0177187628603
0.017298924519
0.0164458256655
0.0148702605451
0.0122013908343
0.0114831894961
0.011413452699
0.011742837027
0.0141172174215
0.0154959183596
0.016217719353
0.0165736718168
0.0167390102082
0.0168129159643
0.0168464693776
0.0168639976912
0.0168761720594
0.0168875017168
0.0168998981833
0.0169142749614
0.0169317063258
0.0169562180232
0.0169887572657
0.0170290507886
0.0170757422309
0.0171274919507
0.0171838618807
0.0172447850374
0.017310127056
0.0173795637315
0.0174525550383
0.0175283541852
0.0176060216965
0.0176844515211
0.0177622661241
0.0178374282592
0.0179061660142
0.0179606635058
0.0179840479613
0.0179424517716
0.0177701932681
0.0173548794801
0.0165048410029
0.0149281120014
0.0122452609981
0.0114903778116
0.0114130606036
0.0117350354754
0.0140923428437
0.0154527806151
0.0161593627854
0.0165046966259
0.016663619282
0.0167341039567
0.0167660257318
0.0167828705127
0.0167948316305
0.0168061882042
0.0168187567218
0.0168334403032
0.0168524553272
0.0168794281297
0.0169146397296
0.0169573772763
0.0170061201969
0.0170598831597
0.0171184908738
0.0171819183589
0.0172500036925
0.0173223968301
0.0173985201795
0.0174775706099
0.0175585290822
0.0176402334268
0.0177212807539
0.0177996591418
0.0178717162993
0.0179299267853
0.0179579565692
0.0179227674536
0.0177595860786
0.0173566106756
0.0165212926407
0.0149583867755
0.0122779272256
0.0114965411187
0.0114106845267
0.0117081478291
0.0140233635253
0.0153434999023
0.016018798012
0.0163433674961
0.0164901705483
0.0165542661873
0.0165830227149
0.0165982954151
0.016609392434
0.016620174122
0.0166322794716
0.0166465751724
0.0166665382474
0.0166947184539
0.0167311410734
0.0167747631527
0.01682405533
0.0168783601444
0.0169376416866
0.0170018662724
0.0170708357683
0.0171442106778
0.017221403962
0.0173015686857
0.0173836101006
0.0174663526793
0.0175484264318
0.0176279377124
0.0177015331614
0.0177623393674
0.017795244321
0.0177691984607
0.0176220150515
0.0172444252097
0.0164446021305
0.0149245443163
0.012281694533
0.0114996858304
0.0114022439053
0.0116300353043
0.0138486188109
0.0150867543623
0.0157034509495
0.0159914968444
0.016118027844
0.0161718134765
0.0161955127693
0.0162081583132
0.0162176124104
0.0162270771257
0.0162379176647
0.0162511271638
0.0162707459145
0.0162985323978
0.01633436749
0.0163769769823
0.0164249372671
0.0164778139033
0.0165356319523
0.0165983185678
0.0166656138678
0.0167372622642
0.0168127236669
0.0168911010198
0.016971224988
0.017051976748
0.0171320895466
0.017209893032
0.0172825375024
0.0173442404274
0.0173820053382
0.0173684292825
0.0172465978366
0.0169134296135
0.0161819104295
0.0147547606606
0.0122186154432
0.0114947582912
0.0113761878506
0.0114237920743
0.013438710586
0.0145254476401
0.0150437058344
0.0152748991664
0.0153718605487
0.0154113828389
0.0154283019986
0.0154373830168
0.0154444532286
0.0154518361293
0.0154605372835
0.0154713662954
0.0154882298249
0.0155130299447
0.0155457051231
0.0155848662891
0.0156290336776
0.0156778288554
0.0157312969834
0.0157893257472
0.0158515045589
0.0159177781889
0.0159878003197
0.0160605311728
0.0161347491786
0.0162095024584
0.016283694226
0.0163559684377
0.0164241557209
0.0164839742413
0.0165254893428
0.0165269536061
0.0164405171819
0.016175371896
0.0155579474598
0.0143019744406
0.0119997103154
0.0114682118283
0.0113049115059
0.0109271721425
0.0125497200314
0.0133845904848
0.0137564866034
0.0139109449123
0.0139713234591
0.0139944859778
0.0140040425631
0.0140092889022
0.0140136682166
0.0140185385995
0.0140245187751
0.0140321397961
0.0140446417247
0.0140641051313
0.0140909105783
0.0141239160745
0.0141614908044
0.0142031161929
0.0142488112533
0.0142984690482
0.0143514738011
0.0144078198591
0.0144678663897
0.0145301886313
0.014593583289
0.0146572897705
0.0147204620885
0.0147821581283
0.0148409758152
0.0148944692445
0.0149365062294
0.0149529480131
0.0149096659414
0.0147369982666
0.0142901073465
0.0133173340487
0.0114599697867
0.0113920415954
0.0111556981734
0.00996209583079
0.0108893794823
0.0113462836634
0.011529003909
0.0115968429425
0.0116207253768
0.0116291868041
0.0116325940291
0.0116346179507
0.0116365152006
0.0116387885578
0.0116416934182
0.0116454210699
0.011650470473
0.0116595229129
0.0116743417841
0.0116951984645
0.0117200875906
0.0117478189492
0.0117782292134
0.011811227815
0.0118462515646
0.0118829970599
0.0119226472316
0.0119638808876
0.0120055131339
0.0120474963837
0.0120893258596
0.0121304437771
0.0121702538723
0.012207765162
0.0122406837609
0.0122633943952
0.0122598628689
0.0121938383366
0.0119785553515
0.0114486976062
0.0103876179154
0.0112320199517
0.011113498817
0.01116472833
0.0113004752138
0.0113626177831
0.0113844449448
0.011391537412
0.011393892595
0.0113948454668
0.0113954290794
0.0113959571934
0.0113965288205
0.0113971812571
0.0113979343977
0.0113988026521
0.0113998004353
0.0114009695315
0.0114024258824
0.0114043752355
0.0114071070977
0.0114109149427
0.0114156605518
0.0114209527625
0.0114266109294
0.0114324748568
0.0114387192291
0.011445225326
0.0114517263536
0.0114582033164
0.0114645965126
0.0114708402495
0.0114768997098
0.0114826828
0.0114880117824
0.0114923829353
0.0114941717264
0.0114886156026
0.0114629219369
0.0113887674567
0.0112308330208
0.0111268560299
0.0113064013276
0.0124864083775
0.0131891466755
0.0135023839268
0.0136264503113
0.0136723618479
0.0136889399976
0.0136955188867
0.0136989749516
0.0137016491608
0.0137042548974
0.0137070102446
0.0137099678736
0.013713137733
0.0137165140448
0.0137200865757
0.0137238417969
0.0137277643633
0.0137318359609
0.0137360377907
0.0137403248059
0.0137447053478
0.0137491530177
0.0137536140271
0.0137580708766
0.0137624950042
0.0137668583822
0.0137711339574
0.0137752949292
0.0137792872323
0.0137830451417
0.0137863279642
0.0137883033122
0.0137864092426
0.013773003945
0.0137273412062
0.0135976751106
0.0132695014521
0.0125383167882
0.0113117564222
0.0124832360495
0.0200281138651
0.0231745279826
0.0246099419393
0.02523727889
0.0254952059559
0.0255950084672
0.0256322577854
0.0256464422179
0.0256527437293
0.0256565585388
0.0256597306083
0.0256628563569
0.0256661303955
0.025669613603
0.0256733242021
0.0256772633477
0.0256814243776
0.0256857941689
0.025690355611
0.0256950814962
0.0256999496978
0.0257049379333
0.0257100022534
0.0257151088962
0.0257202154604
0.0257252743665
0.0257302214341
0.02573494414
0.0257391782592
0.0257421843464
0.0257418234411
0.0257319690732
0.0256960653322
0.0255918930838
0.0253204942564
0.0246663843781
0.0231914115022
0.0199979615242
0.012460646348
0.013183960929
0.0231710330265
0.0275210350805
0.029652067949
0.0306657306869
0.0311219350558
0.0313144628957
0.0313910686224
0.031420248316
0.0314313663215
0.031436014098
0.0314385082159
0.0314403661473
0.0314421111513
0.031443921622
0.0314458618122
0.0314479557251
0.0314502120531
0.0314526309084
0.0314552075667
0.0314579296512
0.0314607874806
0.0314637645584
0.0314668355302
0.0314699742221
0.0314731452049
0.0314762969358
0.0314793322229
0.0314820197093
0.0314837331902
0.0314827104915
0.0314741162444
0.0314452262228
0.0313647725747
0.0311611119019
0.030683465404
0.02963533315
0.0274606617578
0.0230677704726
0.0131389489172
0.0134961725354
0.0246039719344
0.0296493005048
0.0322397773292
0.0335393177659
0.034158732571
0.0344357937665
0.0345519616296
0.0345977509889
0.0346148873923
0.0346210449509
0.0346232282417
0.0346240458525
0.0346244372369
0.0346247350076
0.0346250624201
0.0346254698294
0.0346259814792
0.0346266100541
0.0346273622108
0.0346282392348
0.0346292403886
0.0346303600811
0.0346315855587
0.0346328994024
0.0346342711663
0.0346356406881
0.0346368634995
0.0346375519634
0.0346366327146
0.0346311676508
0.0346134696307
0.034564491535
0.0344404021545
0.0341476010212
0.0335023242024
0.0321654512977
0.029532421204
0.0244525812219
0.0134375984166
0.013619802173
0.0252297468166
0.0306610020546
0.0335372154387
0.0350308412944
0.0357699386915
0.0361136063927
0.0362631581572
0.0363239514988
0.0363469793278
0.0363548994033
0.0363570924223
0.0363571969444
0.036356567745
0.0363556978823
0.0363547729191
0.0363538700696
0.0363530282235
0.036352270926
0.0363516144505
0.0363510698471
0.036350644712
0.0363503417463
0.0363501576497
0.0363500813947
0.0363500844292
0.0363500937963
0.0363499116791
0.0363489874834
0.0363458074608
0.0363363407563
0.0363104164563
0.036243876005
0.0360835836383
0.0357213105023
0.0349541312895
0.0334226755338
0.0305067978166
0.025049312868
0.013554178861
0.0136655891469
0.0254868612664
0.0311160385804
0.0341552848917
0.0357685293901
0.0365862103452
0.0369761405212
0.0371501337998
0.0372225084591
0.0372503839541
0.0372599540424
0.0372623880989
0.0372621405648
0.0372609101918
0.0372593278739
0.0372576338908
0.037255928789
0.0372542634596
0.037252669596
0.0372511701523
0.0372497824882
0.037248519618
0.0372473896775
0.0372463944903
0.0372455261606
0.0372447547418
0.0372439927869
0.0372429926432
0.037241062005
0.0372363227478
0.0372238818527
0.0371917078244
0.0371120334839