/*--------------------------------*- C++ -*----------------------------------*\
| =========                 |                                                 |
| \\      /  F ield         | foam-extend: Open Source CFD                    |
|  \\    /   O peration     | Version:     4.1                                |
|   \\  /    A nd           | Web:         http://www.foam-extend.org         |
|    \\/     M anipulation  |                                                 |
\*---------------------------------------------------------------------------*/
FoamFile
{
    version     2.0;
    format      ascii;
    class       volScalarField;
    location    "0.4";
    object      nut;
}
// * * * * * * * * * * * * * * * * * * * * * * * * * * * * * * * * * * * * * //

dimensions      [0 2 -1 0 0 0 0];

internalField   nonuniform List<scalar> 
96000
(
0.000283757440607
0.000284586382152
0.000286583573148
0.000287523860154
0.000287866991238
0.000287981662308
0.000288019071424
0.000288032296251
0.00028803843667
0.000288042783734
0.000288046865587
0.000288051117646
0.00028805564572
0.000288060468757
0.000288065577446
0.000288070953905
0.000288076575048
0.000288082414858
0.000288088443226
0.000288094628937
0.000288100912044
0.000288107292851
0.00028811372955
0.000288120153053
0.000288126534264
0.000288132832623
0.000288139008726
0.000288145024469
0.000288150846413
0.000288157417869
0.000288163851584
0.000288169145433
0.000288171343592
0.00028816387056
0.000288126515414
0.000288000271374
0.000287624641107
0.000286614784216
0.000284517847552
0.000283761241011
0.000284591826326
0.000179987165311
0.000188987687186
0.000193415224992
0.000195243759096
0.000195949595743
0.000196207756202
0.000196300549491
0.000196336242015
0.000196353756141
0.000196366090684
0.000196377451664
0.000196389115971
0.000196401471166
0.000196414616986
0.000196428564816
0.000196443288366
0.00019645874324
0.000196474866108
0.000196491583505
0.000196508773682
0.000196526393139
0.000196544347837
0.000196562462889
0.000196580637568
0.000196598738723
0.000196616627991
0.000196634138196
0.000196651011247
0.000196666672894
0.000196679475096
0.000196684417923
0.000196666384391
0.000196581989519
0.000196313317156
0.000195563455821
0.000193637833713
0.000189062198466
0.000179996272032
0.000284619373912
0.000286581113777
0.000188973961979
0.000203529028215
0.000210848161994
0.000214164126007
0.000215582598891
0.000216152734946
0.000216369899776
0.000216450144236
0.000216480843671
0.000216494684937
0.00021650326473
0.000216510483306
0.000216517634096
0.000216525139783
0.000216533143559
0.000216541690179
0.000216550785852
0.000216560412585
0.000216570538839
0.000216581108817
0.00021659208762
0.000216603410233
0.000216614977026
0.000216626701258
0.000216638471014
0.000216650138101
0.000216661445287
0.00021667180451
0.000216679611172
0.000216680211526
0.000216660304093
0.000216583261406
0.000216354380631
0.000215744663291
0.000214243472821
0.000210786885741
0.000203290012182
0.000188720218815
0.000286531627767
0.000287516735026
0.000193391348839
0.000210836103995
0.000219916482445
0.000224278251233
0.000226268483011
0.000227121279881
0.000227464203119
0.000227594214287
0.000227641289767
0.000227657860412
0.000227663792386
0.000227666194775
0.000227667544383
0.000227668697427
0.000227669968282
0.000227671485971
0.000227673312954
0.000227675480923
0.000227678005315
0.000227680886035
0.00022768412015
0.000227687688577
0.000227691550026
0.000227695654368
0.000227699918035
0.000227704183036
0.00022770807475
0.000227710576648
0.000227708798209
0.000227694558249
0.000227645606222
0.000227504440984
0.000227132517091
0.000226219524335
0.000224125199728
0.000219606893027
0.000210352185592
0.000192954658713
0.000287420010939
0.000287857916117
0.000195214074274
0.000214144028594
0.000224269483456
0.000229319419169
0.000231720875608
0.000232794277646
0.000233243183156
0.000233418475321
0.000233482014686
0.000233502483339
0.000233507122122
0.000233506101146
0.000233503089775
0.000233499396477
0.000233495513705
0.000233491652831
0.000233487926656
0.000233484407916
0.000233481149921
0.000233478191518
0.000233475562567
0.000233473278889
0.000233471339119
0.000233469722343
0.000233468362269
0.000233467077789
0.000233465358226
0.00023346173666
0.000233452047852
0.000233424813131
0.000233349956226
0.000233153098934
0.000232663428555
0.000231517328756
0.000229001471559
0.000223792156812
0.000213506784945
0.000194675311454
0.000287740441323
0.000287971952656
0.000195917152046
0.000215557975695
0.000226254339963
0.00023171520849
0.000234380283176
0.000235604194286
0.00023612972928
0.000236339754111
0.000236416945958
0.000236441417338
0.000236445927731
0.00023644306182
0.000236437473078
0.000236430856128
0.000236423857469
0.000236416757612
0.00023640970861
0.000236402812523
0.000236396148105
0.000236389778726
0.000236383755791
0.000236378117052
0.000236372882736
0.000236368047508
0.000236363548529
0.000236359172526
0.000236354278728
0.000236347007692
0.000236332142541
0.000236295616648
0.000236201535444
0.000235963730411
0.000235390498584
0.000234086947099
0.000231302801463
0.000225683707452
0.000214840134542
0.000195329713314
0.000287847006837
0.000288009237226
0.000196174140013
0.000216125756827
0.00022710407484
0.000232785206419
0.000235600677111
0.000236915051564
0.00023748888576
0.0002377218828
0.000237808689374
0.000237836417834
0.00023784138548
0.000237837803812
0.000237831016485
0.000237822998864
0.000237814512656
0.000237805890303
0.000237797312257
0.000237788900183
0.000237780748504
0.000237772934262
0.000237765520333
0.000237758554515
0.000237752065577
0.000237746051815
0.000237740443907
0.000237734994526
0.000237728955791
0.000237720172495
0.000237702676536
0.000237660634136
0.000237554360351
0.000237290403592
0.000236664996781
0.000235266787946
0.000232329099021
0.000226489575037
0.000215369919664
0.000195563651501
0.000287882297207
0.00028802252483
0.000196266517751
0.000216341781175
0.000227445360098
0.000233232192796
0.000236124168718
0.000237486805778
0.000238087562384
0.000238333977854
0.00023842678799
0.000238456876999
0.000238462570911
0.000238459037686
0.000238452043444
0.000238443742763
0.000238434974238
0.000238426106156
0.000238417338385
0.000238408804949
0.00023840060879
0.000238392832869
0.00023838554346
0.000238378789544
0.000238372598539
0.000238366963137
0.000238361800383
0.000238356829832
0.000238351221574
0.000238342616906
0.000238324561965
0.00023828013184
0.0002381674043
0.000237888833338
0.000237234292597
0.000235784525389
0.00023276650472
0.00022681774795
0.000215571458458
0.000195644368674
0.000287895563963
0.000288028792701
0.000196302089388
0.00021642143569
0.000227574435696
0.000233406338378
0.000236332944847
0.000237718517208
0.000238332686212
0.000238586165431
0.000238682422771
0.00023871413617
0.000238720635046
0.000238717586648
0.000238710989057
0.000238703101456
0.000238694810989
0.000238686510441
0.000238678413447
0.000238670662229
0.000238663364151
0.000238656603493
0.000238650444795
0.000238644932319
0.000238640085586
0.000238635885254
0.00023863222985
0.000238628806949
0.000238624723476
0.00023861748369
0.000238600331454
0.000238555697815
0.000238440400685
0.000238154693178
0.000237485242797
0.000236009155629
0.000232951216928
0.000226950411545
0.000215647653493
0.000195672236758
0.000287902572491
0.000288033302827
0.000196319622032
0.000216451798072
0.00022762090546
0.000233469103871
0.000236409281999
0.000237804442482
0.000238424616587
0.000238681550555
0.000238779755633
0.000238812646798
0.000238819994913
0.000238817701148
0.00023881188159
0.000238804854555
0.000238797538577
0.000238790344482
0.000238783496843
0.000238777144126
0.000238771396072
0.00023876633567
0.000238762022467
0.000238758491996
0.000238755751183
0.00023875376372
0.000238752405439
0.000238751331349
0.000238749595354
0.000238744602776
0.00023872939982
0.000238686021443
0.000238570547977
0.000238281996122
0.000237605335682
0.000236115877982
0.000233037638645
0.000227010777763
0.000215680868094
0.000195683886853
0.00028790824301
0.000288037580983
0.000196332071341
0.000216465433193
0.000227637022664
0.000233488964253
0.000236433075176
0.000237831477158
0.000238454026971
0.000238712608914
0.000238812009259
0.000238845873268
0.000238854133773
0.000238852790095
0.000238848017042
0.000238842168498
0.000238836185982
0.000238830495784
0.000238825332719
0.000238820851105
0.000238817162301
0.000238814346617
0.000238812456448
0.00023881151558
0.000238811514514
0.000238812395599
0.00023881400766
0.000238815970468
0.000238817287616
0.000238815282166
0.000238802851529
0.000238761749985
0.000238647557037
0.00023835847181
0.000237678382618
0.000236181472153
0.000233091330131
0.000227048747693
0.000215702298482
0.000195692040675
0.000287914140682
0.000288042071078
0.000196343662242
0.000216473921339
0.00022764260559
0.000233493093048
0.000236437008266
0.000237835862335
0.000238459171104
0.000238718604103
0.000238818896881
0.000238853700438
0.000238862982593
0.00023886277822
0.000238859293768
0.000238854908578
0.000238850584372
0.000238846762853
0.000238843689772
0.000238841525831
0.000238840383985
0.000238840341021
0.000238841440422
0.000238843691466
0.000238847064472
0.000238851475851
0.000238856742351
0.00023886244378
0.000238867530764
0.000238869247087
0.000238860356977
0.000238822374343
0.000238710460561
0.000238422136831
0.000237740399601
0.000236238463594
0.000233139482528
0.000227084481581
0.000215724286636
0.000195701710814
0.000287920842535
0.000288046889054
0.000196355706299
0.000216481184454
0.000227644769506
0.000233491656381
0.000236433658195
0.00023783180293
0.000238455214986
0.000238715208301
0.000238816333222
0.000238852151353
0.000238862611667
0.000238863758548
0.000238861819805
0.000238859197538
0.000238856874203
0.00023885530851
0.000238854758797
0.000238855393335
0.000238857327081
0.000238860632727
0.000238865343133
0.000238871450179
0.000238878899893
0.00023888757752
0.0002388972616
0.000238907485382
0.000238917140113
0.000238923385076
0.000238918848758
0.00023888480628
0.000238776007921
0.000238489305973
0.000237806806608
0.000236300715708
0.000233193638094
0.000227126574527
0.000215752278462
0.000195715319141
0.000287928645225
0.000288052064345
0.000196368632772
0.000216488554744
0.00022764602283
0.000233488350757
0.000236427705202
0.000237824672464
0.000238447960439
0.000238708463197
0.000238810487676
0.000238847465527
0.00023885930526
0.000238862051566
0.000238861951513
0.000238861431159
0.000238861496199
0.000238862625104
0.000238865091202
0.000238869072032
0.000238874685272
0.00023888199908
0.000238891033926
0.00023890176105
0.000238914097469
0.000238927891124
0.000238942874957
0.000238958527225
0.000238973670522
0.000238985369302
0.0002389861038
0.000238956892542
0.000238852045804
0.00023856769688
0.000237884983434
0.000236374981756
0.000233259605321
0.000227179636563
0.000215789575938
0.000195734593624
0.000287937765979
0.000288057597482
0.000196382583014
0.000216496497911
0.000227647261645
0.000233484523067
0.000236420884042
0.000237816490988
0.000238439613745
0.000238700688793
0.000238803750447
0.000238842081756
0.000238855542711
0.000238860176625
0.000238862251689
0.000238864221304
0.000238867118279
0.000238871444522
0.000238877491459
0.000238885448119
0.000238895435995
0.000238907518403
0.000238921701505
0.000238937932233
0.000238956093138
0.000238975987641
0.000238997294233
0.000239019425861
0.000239041124635
0.000239059346154
0.000239066403928
0.000239043032462
0.000238943057745
0.000238661817955
0.000237979437723
0.000236465687204
0.000233341632818
0.000227247389648
0.000215839210061
0.000195761131684
0.000287948401935
0.000288063479564
0.00019639760831
0.000216505200419
0.00022764884248
0.000233480708107
0.000236413886488
0.000237808071022
0.00023843107229
0.000238692841197
0.000238797121385
0.000238837037523
0.000238852398823
0.000238859249047
0.000238863881516
0.000238868781831
0.000238875014851
0.000238883110501
0.000238893382175
0.000238906033242
0.000238921190514
0.000238938912332
0.000238959188525
0.000238981937598
0.0002390070013
0.000239034130046
0.000239062937358
0.000239092758453
0.000239122240641
0.000239148215034
0.00023916281087
0.000239146512975
0.000239052765099
0.000238776009664
0.000238100881933
0.000236594059147
0.000233470166072
0.000227359270955
0.000215928041356
0.000195800365461
0.000287960772159
0.000288069695564
0.000196413719718
0.000216514748534
0.000227650935804
0.00023347715982
0.000236407039314
0.000237799797494
0.000238422765523
0.000238685385384
0.000238791096976
0.00023883286088
0.000238850436087
0.000238859870577
0.000238867488273
0.000238875812973
0.000238885947555
0.000238898455512
0.000238913676943
0.000238931833127
0.000238953058231
0.000238977405739
0.000239004847024
0.000239035267543
0.000239068460953
0.000239104114664
0.000239141764733
0.000239180655088
0.000239219329228
0.000239254603412
0.000239278626009
0.00023927652774
0.00023920870041
0.000238956810671
0.000238297599496
0.000236793597451
0.00023366401516
0.000227534902814
0.000216074160585
0.000195888131705
0.000287975443872
0.000288076225813
0.000196430904689
0.000216525185619
0.000227653642549
0.000233474031656
0.000236400539642
0.000237791902706
0.000238414954347
0.000238678607664
0.000238785988766
0.00023882989087
0.000238850025089
0.000238862448805
0.000238873523167
0.000238885817268
0.000238900479077
0.000238918112236
0.000238939089281
0.000238963653817
0.000238991950023
0.000239024026987
0.000239059835451
0.000239099222599
0.00023914192543
0.000239187556651
0.000239235567107
0.000239285193583
0.000239335241431
0.000239391942595
0.000239449547825
0.000239478235736
0.000239428974451
0.000239192519699
0.000238544026763
0.000237043247975
0.000233907689664
0.000227759459757
0.000216265758244
0.000196009507512
0.000287993310468
0.000288083045898
0.000196449130143
0.000216536528092
0.000227657029826
0.000233471434234
0.000236394532114
0.000237784557892
0.000238407831711
0.000238672721053
0.000238782030711
0.000238828385237
0.000238851451671
0.000238867303171
0.000238882345839
0.000238899202299
0.000238919073828
0.000238942611948
0.000238970228434
0.000239002194588
0.000239038668024
0.000239079694299
0.000239125201144
0.000239174991289
0.000239228736202
0.000239285978688
0.000239346501263
0.000239416558898
0.000239505091952
0.000239595008363
0.000239676205019
0.000239727131145
0.000239697881432
0.000239478050893
0.000238840839016
0.000237343379536
0.000234201527743
0.00022803356595
0.000216504791317
0.00019616897074
0.000288017090894
0.000288090128226
0.000196468340747
0.000216548767501
0.000227661140522
0.000233469452964
0.000236389133363
0.000237777902722
0.000238401555162
0.000238667899271
0.000238779413496
0.000238828554316
0.000238854949854
0.000238874696557
0.000238894254323
0.000238916308682
0.000238942123622
0.000238972407502
0.000239007619292
0.000239048064463
0.000239093918264
0.000239145223766
0.000239201882741
0.000239263650255
0.000239330232558
0.000239401850233
0.000239500450005
0.000239610412076
0.000239726126472
0.000239842380423
0.000239949019749
0.000240023485338
0.000240015288804
0.00023981239074
0.000239186397325
0.000237691820947
0.000234542850332
0.000228354596958
0.00021678974873
0.000196368549217
0.000288050590295
0.000288097424223
0.000196488432249
0.000216561870093
0.000227665998443
0.000233468154396
0.000236384439596
0.00023777205381
0.000238396255842
0.000238664285693
0.000238778292983
0.000238830568586
0.000238860708144
0.000238884840021
0.000238909487838
0.00023893741054
0.000238969945425
0.000239007867863
0.000239051693264
0.000239101768754
0.00023915829192
0.000239221304158
0.000239290685835
0.000239366414217
0.000239455847309
0.000239574639724
0.000239705259433
0.000239844849848
0.000239989673922
0.000240133812063
0.000240266602751
0.000240364986244
0.000240377758833
0.000240191646855
0.000239576480474
0.000238084197788
0.000234927245396
0.000228717784394
0.000217115663889
0.000196604695041
0.000288097179427
0.000288104879744
0.000196509317023
0.000216575789944
0.00022767160931
0.000233467585959
0.000236380526502
0.000237767105045
0.00023839203883
0.000238661993331
0.000238778789466
0.000238834556822
0.000238868866265
0.00023889788777
0.0002389282196
0.000238962705693
0.000239002768395
0.000239049261497
0.000239102767215
0.000239163682484
0.000239232231887
0.000239308467215
0.000239392690828
0.000239499459918
0.000239635231291
0.000239785763966
0.000239948312753
0.000240119098136
0.000240293643376
0.000240465708707
0.000240624446384
0.000240746579103
0.000240780366448
0.000240611248405
0.000240007094017
0.0002385170122
0.000235351482773
0.000229119614679
0.000217477953837
0.000196870645973
0.000288159843281
0.000288112520466
0.000196530963986
0.000216590492202
0.000227677968549
0.000233467777252
0.000236377448549
0.000237763125495
0.000238388980151
0.000238661100941
0.000238780982737
0.000238840599922
0.000238879507471
0.000238913927571
0.000238950544911
0.000238992300916
0.00023904071573
0.000239096734017
0.000239161015802
0.000239234015972
0.000239316002784
0.000239407583511
0.000239527895668
0.000239678614332
0.000239847734599
0.000240031929834
0.000240227213613
0.000240429094607
0.000240632859031
0.000240832466497
0.0002410172788
0.000241163912479
0.000241219880343
0.000241069022851
0.000240476875696
0.000238989358072
0.000235814642634
0.000229558578545
0.000217874288902
0.000197162033355
0.000288232962889
0.00028812025675
0.000196553192374
0.000216605864868
0.000227685029166
0.000233468726592
0.000236375230149
0.000237760151969
0.000238387119182
0.000238661644769
0.000238784902859
0.000238848720464
0.000238892646551
0.000238932966843
0.000238976464874
0.000239026192714
0.000239083781827
0.000239150280649
0.00023922643785
0.000239312783573
0.000239410144552
0.00023953888346
0.00023970216863
0.000239887499655
0.000240091419894
0.000240309429154
0.000240536683005
0.000240768815619
0.000241001688252
0.000241229725745
0.000241442304174
0.00024161552094
0.000241695790262
0.00024156504592
0.000240986198577
0.000239501680744
0.000236317042751
0.000230034444374
0.00021830302835
0.000197475369583
0.000288312448038
0.000288128017412
0.000196575803677
0.000216621773194
0.000227692715135
0.000233470397801
0.000236373855885
0.000237758175325
0.000238386442559
0.000238663600705
0.000238790510841
0.000238858861882
0.000238908207339
0.000238954908181
0.000239005859502
0.000239064237484
0.000239131798546
0.000239209707355
0.000239298816449
0.000239400101341
0.000239531672162
0.000239704085328
0.000239902413885
0.000240123242758
0.000240361600722
0.00024061215062
0.000240870549168
0.000241133375688
0.000241397017632
0.000241655857934
0.000241898828649
0.00024210121575
0.000242208133143
0.000242099436706
0.000241535224505
0.000240054244243
0.000236859190541
0.000230548100328
0.000218764347912
0.000197808241381
0.000288396230743
0.000288135775849
0.000196598655917
0.000216638075847
0.00022770091329
0.000233472698425
0.000236373238478
0.000237757101325
0.000238386840159
0.000238666836942
0.000238797648873
0.000238870836639
0.000238925968861
0.000238979493265
0.000239038428954
0.00023910608937
0.000239184368706
0.000239274560711
0.000239377802109
0.0002395065588
0.000239684012366
0.000239891320452
0.000240125291087
0.000240380766169
0.000240651910488
0.000240934249266
0.00024122467545
0.000241520291007
0.000241817355301
0.000242109786749
0.00024238585157
0.00024261990798
0.000242755681351
0.000242670858314
0.000242122612423
0.000240645904756
0.000237440525829
0.000231100433215
0.000219262592559
0.000198167182405
0.000288485346397
0.000288144741149
0.000196621551358
0.000216654567695
0.00022770941651
0.000233475402919
0.000236373120464
0.000237756635018
0.000238387977507
0.000238670978592
0.000238805899697
0.000238884181649
0.000238945417233
0.000239006151159
0.000239073537836
0.000239151039772
0.000239240700108
0.000239343995744
0.000239465030615
0.000239642866317
0.000239854241438
0.000240096779579
0.000240365281682
0.000240653486564
0.000240956632167
0.000241271773317
0.00024159637415
0.000241927361554
0.000242260494317
0.000242589062627
0.000242900591606
0.000243168470196
0.000243334981659
0.000243275569825
0.000242744383354
0.000241272478912
0.000238056650723
0.000231686650497
0.000219793118802
0.000198552625458
0.000288581451952
0.000288154595685
0.000196644261632
0.000216670924122
0.000227717784164
0.000233477934307
0.000236372790196
0.000237755949039
0.000238388932908
0.000238675025459
0.000238814192075
0.000238897754961
0.000238965334908
0.000239033580265
0.000239109789289
0.000239197582534
0.00023929916961
0.000239416821991
0.000239582109742
0.000239792294632
0.000240037937946
0.000240314494401
0.00024061536385
0.000240935232299
0.00024127117486
0.000241620992035
0.000241982007705
0.000242350639089
0.000242722015738
0.000243088749605
0.000243437596014
0.000243740947181
0.000243939596096
0.000243906678561
0.00024339321948
0.000241926242422
0.000238699333514
0.00023229772887
0.000220345035354
0.000198951913602
0.000288680906785
0.000288164546616
0.000196666447588
0.000216686463456
0.000227724900833
0.000233478719124
0.000236370269438
0.000237752752835
0.000238387191415
0.000238676300482
0.000238819720758
0.00023890863542
0.000238982683088
0.000239058613804
0.000239143872402
0.00023924224342
0.000239356289265
0.000239502386294
0.000239706091745
0.000239948796957
0.000240227542646
0.000240535811986
0.000240867445071
0.000241219222739
0.000241589298823
0.000241975468131
0.000242374591808
0.00024278247123
0.000243193570748
0.000243599806723
0.000243987164868
0.000244327009465
0.000244558639248
0.000244552880999
0.000244057632919
0.000242595868101
0.000239357866099
0.000232924134148
0.000220910726347
0.00019935972343
0.000288781776737
0.00028817430096
0.000196687433002
0.000216699448806
0.000227727718676
0.000233473409995
0.0002363601319
0.000237740838389
0.000238376024268
0.00023866773241
0.000238815170461
0.000238909305518
0.000238989749592
0.000239073333109
0.000239167638694
0.000239276624346
0.000239403871551
0.000239592536668
0.000239826187044
0.000240100428197
0.000240409847086
0.000240747512042
0.000241109291434
0.000241493523534
0.000241898617172
0.00024232202103
0.000242760038501
0.000243207830788
0.000243659199709
0.000244105374878
0.000244531569768
0.000244908173537
0.000245173081551
0.00024519497807
0.00024471885565
0.000243263842064
0.000240016926795
0.000233553602811
0.000221481603768
0.000199772910092
0.000288884130892
0.000288183528725
0.000196705427698
0.000216705005152
0.000227717772135
0.000233450188552
0.000236327918791
0.000237703926403
0.000238338002964
0.00023863118339
0.000238781932538
0.000238880790034
0.000238967219965
0.000239058071095
0.000239161035962
0.000239280483518
0.000239437924468
0.000239656213291
0.000239918671308
0.000240221853144
0.000240558884325
0.00024092410376
0.000241315448165
0.000241731922627
0.000242171783167
0.000242632031503
0.000243108408619
0.000243595449339
0.000244086304965
0.000244571545659
0.000245035694022
0.000245448320134
0.000245746203957
0.000245796353097
0.000245341468798
0.000243897433442
0.000240648155502
0.000234163589369
0.000222038420779
0.000200187563226
0.00028898675482
0.000288191513908
0.000196715204559
0.000216689436293
0.000227672290445
0.000233378360075
0.000236237031639
0.000237601544061
0.000238230326323
0.000238522489171
0.000238674986529
0.0002387774312
0.000238868861443
0.000238966003712
0.00023907659912
0.000239205834752
0.000239399104726
0.000239642336886
0.000239930809236
0.000240259143339
0.000240620375769
0.00024101099007
0.000241430180184
0.00024187707637
0.000242349646769
0.000242844457791
0.000243356721011
0.000243880361553
0.000244407925332
0.000244929420521
0.000245428861569
0.000245875348469
0.000246205174189
0.000246284682012
0.000245855665889
0.000244432193326
0.000241195885252
0.000234710561551
0.000222553932826
0.000200589155113
0.000289087872012
0.000288196002113
0.000196701193247
0.000216615353549
0.000227532814245
0.000233182453294
0.000236000096643
0.000237338919719
0.000237953996344
0.000238240295168
0.000238391559178
0.000238495427173
0.000238589951962
0.000238691464602
0.00023880777215
0.000238956919795
0.000239173723063
0.000239438070119
0.000239747715863
0.00024009595885
0.000240476992263
0.000240889169457
0.000241332216923
0.000241805147441
0.000242305659147
0.000242829948891
0.000243372750655
0.000243927409313
0.000244485967222
0.000245038057579
0.000245567532576
0.000246043656945
0.000246403400216
0.000246514361507
0.000246120155286
0.000244736101838
0.000241543815438
0.000235101056109
0.000222967206228
0.000200945143824
0.000289183266178
0.000288190209797
0.000196619192503
0.000216386784177
0.000227159324099
0.000232690077425
0.000235423744333
0.000236710506073
0.000237296950787
0.000237569132946
0.000237714241044
0.000237816001147
0.000237910493147
0.000238013191484
0.000238131989829
0.000238303355307
0.000238534471272
0.000238814061206
0.000239138007968
0.000239499257652
0.00023989376095
0.000240321028767
0.000240780879456
0.000241272131586
0.000241792341727
0.000242337448678
0.000242901774445
0.000243478121646
0.000244058212118
0.000244631609917
0.000245182544859
0.000245681452882
0.000246067870827
0.000246213883605
0.000245869762408
0.000244558033331
0.000241465870428
0.000235147857323
0.000223146249267
0.000201192055108
0.000289263253838
0.000288153284242
0.000196349749649
0.00021577273684
0.000226239467185
0.000231535613643
0.000234111083111
0.000235302878266
0.000235837702384
0.000236083647135
0.000236215588491
0.000236310230787
0.000236400189654
0.000236499418838
0.000236615709284
0.000236801172784
0.000237038354763
0.000237324019212
0.000237652729687
0.0002380176338
0.000238416197559
0.000238848499689
0.000239314177991
0.000239811837192
0.000240339198993
0.000240892105544
0.000241464503885
0.000242048678842
0.000242636345023
0.000243217416158
0.000243777202948
0.000244288667524
0.000244696564546
0.000244882219826
0.000244610196327
0.000243420596744
0.00024051774979
0.000234463283094
0.000222794123149
0.000201165215668
0.000289297596976
0.000288024887269
0.000195593977637
0.000214260619062
0.000224131414903
0.000229004511487
0.000231310808585
0.000232348368418
0.000232802150378
0.000233007374719
0.000233118127484
0.000233199918635
0.000233280058965
0.000233370278496
0.000233483725237
0.000233667858255
0.000233901079825
0.000234182216043
0.000234504818242
0.000234862469725
0.00023525360047
0.000235678507644
0.000236136423863
0.000236625548317
0.000237144473759
0.000237689201366
0.00023825314722
0.000238828082081
0.00023940618162
0.000239978170169
0.000240531186926
0.000241042205537
0.000241464333507
0.000241694218929
0.000241521415986
0.00024051983628
0.000237932259081
0.000232351862096
0.000221344000031
0.000200526772814
0.000289213176798
0.000287639939557
0.00019365535969
0.000210785326438
0.000219592095251
0.000223773162163
0.000225668909011
0.000226485012548
0.000226828116879
0.000226979434616
0.00022706192351
0.000227125483054
0.00022719042608
0.000227265548096
0.000227361913032
0.000227527450656
0.000227741803973
0.000228004093197
0.000228307096067
0.000228643800879
0.000229012779336
0.000229414427269
0.000229847529937
0.000230309035891
0.00023079969643
0.000231316439129
0.000231851297268
0.000232395663976
0.000232942865448
0.000233484817309
0.000234011091947
0.000234503929479
0.000234927752581
0.000235201074831
0.000235151630988
0.000234410319336
0.000232293713349
0.000227476183261
0.000217617088736
0.000198506755218
0.000288819124545
0.000286619325248
0.000189062524578
0.000203266870218
0.00021031512965
0.000213465616424
0.000214802709015
0.000215341343261
0.000215555503027
0.000215647265532
0.000215698870492
0.000215741576638
0.000215787903675
0.000215843476696
0.000215915241179
0.000216049434842
0.00021622949787
0.000216457047265
0.000216725411074
0.000217025807847
0.000217355741033
0.000217715492521
0.000218103785462
0.000218515685616
0.000218952915072
0.000219417648105
0.000219898131595
0.000220385697289
0.000220872417313
0.000221352379658
0.000221820645972
0.000222265671808
0.000222666020111
0.000222968510901
0.000223054217598
0.000222643730324
0.000221184007593
0.000217517851742
0.000209542755878
0.000193639084028
0.000287734588303
0.000284518386901
0.000179994497752
0.000188695484788
0.000192917548765
0.000194634411646
0.000195290739074
0.000195529754716
0.000195617655832
0.000195654301629
0.000195676291707
0.000195696416348
0.000195719811943
0.000195748991881
0.000195785851331
0.000195841462586
0.000195943501813
0.000196087060741
0.000196272762324
0.00019648778035
0.000196724875337
0.000196982822131
0.000197260628753
0.00019755349648
0.00019786040617
0.000198191644408
0.000198534869814
0.00019888076794
0.000199232305108
0.000199584864867
0.000199931351204
0.000200266224978
0.000200580101497
0.000200849757917
0.000201020646234
0.000200941927299
0.00020028850632
0.000198300754489
0.000193524014731
0.000183748950866
0.000285502105859
0.000283761844478
0.000284619671435
0.000286527737012
0.000287413475394
0.000287733163082
0.000287840174424
0.000287876531663
0.00028789123724
0.000287899968223
0.000287907630574
0.000287915798279
0.000287925061248
0.000287935724268
0.000287948004088
0.000287962159648
0.000287979037368
0.000288000211953
0.000288028213669
0.000288066710366
0.000288118263411
0.000288181439488
0.000288251974192
0.000288327281511
0.000288405709106
0.000288489304932
0.000288576321835
0.000288663578706
0.000288750741408
0.000288836949895
0.000288921267238
0.000289002986746
0.000289080593675
0.000289150860406
0.000289205211349
0.000289217447874
0.000289118065176
0.000288738035181
0.000287682838195
0.000285480318244
0.000283942204832
0.000286397106825
0.000301792179066
0.000310748722946
0.000314763216449
0.00031638912392
0.000317008201763
0.000317237576069
0.000317329526082
0.000317376862922
0.000317412335461
0.000317446240331
0.000317481834208
0.000317519934866
0.000317560717175
0.000317604114921
0.000317649997283
0.000317698187667
0.000317748487991
0.000317800662141
0.000317854465335
0.000317909276049
0.000317965298623
0.000318022160188
0.000318079140079
0.000318136046985
0.000318192521692
0.000318248217886