/*--------------------------------*- C++ -*----------------------------------*\
| =========                 |                                                 |
| \\      /  F ield         | foam-extend: Open Source CFD                    |
|  \\    /   O peration     | Version:     4.1                                |
|   \\  /    A nd           | Web:         http://www.foam-extend.org         |
|    \\/     M anipulation  |                                                 |
\*---------------------------------------------------------------------------*/
FoamFile
{
    version     2.0;
    format      ascii;
    class       volScalarField;
    location    "0.4";
    object      p;
}
// * * * * * * * * * * * * * * * * * * * * * * * * * * * * * * * * * * * * * //

dimensions      [1 -1 -2 0 0 0 0];

internalField   nonuniform List<scalar> 
96000
(
5217.25869565
5217.22996842
5217.27193683
5217.30888802
5217.39708918
5217.50236513
5217.64341274
5217.80754944
5217.99867109
5218.21161354
5218.4456446
5218.6977448
5218.96592665
5219.24767747
5219.54069805
5219.84258076
5220.1509828
5220.46354073
5220.7779807
5221.0919994
5221.40344098
5221.71029667
5222.00996587
5222.30110439
5222.58148047
5222.84937678
5223.10299025
5223.34063187
5223.5607085
5223.76153748
5223.94185004
5224.09954644
5224.23448659
5224.34251542
5224.42788123
5224.47924232
5224.515669
5224.50679474
5224.51098446
5224.46647524
5217.22217166
5217.15711586
5217.17097882
5217.18668305
5217.2619041
5217.35850411
5217.49284141
5217.65115928
5217.83637649
5218.04312239
5218.27040087
5218.51517569
5218.7754124
5219.04861669
5219.33250206
5219.624693
5219.92287997
5220.22474709
5220.52807078
5220.83061507
5221.13046793
5221.425156
5221.71272048
5221.99162863
5222.25983567
5222.51567885
5222.75746156
5222.98359198
5223.1925797
5223.38286602
5223.55331418
5223.70207639
5223.82933563
5223.93170655
5224.01462906
5224.068783
5224.11725498
5224.12994256
5224.17470388
5224.16171585
5217.26099849
5217.168911
5217.15684302
5217.14774974
5217.2043069
5217.2869274
5217.41045376
5217.56012717
5217.73753238
5217.93682319
5218.15645013
5218.39319889
5218.64486001
5218.90888632
5219.18295302
5219.46468767
5219.75179627
5220.04200448
5220.33313775
5220.62303718
5220.90973219
5221.1909586
5221.46496111
5221.73010689
5221.98461127
5222.22690813
5222.45547591
5222.66890243
5222.8659171
5223.04524319
5223.20608496
5223.34710668
5223.46907651
5223.56953651
5223.65482348
5223.71650535
5223.77846222
5223.80724345
5223.87135923
5223.86267723
5217.28972281
5217.17681558
5217.1399353
5217.10620637
5217.141971
5217.20734632
5217.31615602
5217.45281176
5217.61772374
5217.80450889
5218.01105005
5218.23389891
5218.47064754
5218.71867635
5218.97561966
5219.23911479
5219.50690066
5219.77677051
5220.04662402
5220.31441498
5220.57822849
5220.83609167
5221.08634871
5221.32750596
5221.55804281
5221.7766109
5221.98195022
5222.1729273
5222.3485888
5222.50803157
5222.65089276
5222.77639782
5222.88595996
5222.97793992
5223.05959976
5223.12294166
5223.19304618
5223.23279173
5223.31326339
5223.31109369
5217.37206171
5217.24662736
5217.19134336
5217.13699343
5217.15367997
5217.20182304
5217.29516924
5217.41757513
5217.56863108
5217.74143292
5217.93334316
5218.14063635
5218.360685
5218.590764
5218.8284469
5219.07136398
5219.31727866
5219.56404427
5219.80963771
5220.05212703
5220.28972051
5220.52069477
5220.74356977
5220.95702377
5221.15981945
5221.35087762
5221.52925063
5221.69413718
5221.84495384
5221.98120922
5222.10299703
5222.21004927
5222.30431569
5222.38461262
5222.45866768
5222.51804286
5222.58812052
5222.62802179
5222.7110086
5222.70387238
5217.46893596
5217.33507776
5217.26610163
5217.19468763
5217.19421878
5217.22537625
5217.30233276
5217.40856234
5217.54317789
5217.69884001
5217.87250588
5218.06019065
5218.2590706
5218.46631509
5218.6794418
5218.89607806
5219.11402229
5219.33120318
5219.54570248
5219.75573945
5219.95970069
5220.15611767
5220.34374126
5220.52151103
5220.68851203
5220.84400396
5220.98741116
5221.11832255
5221.23656898
5221.34208854
5221.43542085
5221.51671921
5221.58835346
5221.64932486
5221.70763651
5221.75406463
5221.81440078
5221.84457166
5221.92082029
5221.90459388
5217.60125926
5217.46080247
5217.38121903
5217.29517985
5217.27928289
5217.29401309
5217.3542896
5217.4432283
5217.5597141
5217.69603655
5217.84884733
5218.01392437
5218.18827093
5218.36895212
5218.55343247
5218.73933696
5218.92450465
5219.10694921
5219.28487722
5219.45668189
5219.62096366
5219.77652484
5219.92240309
5220.05785451
5220.18233094
5220.29548299
5220.39715568
5220.48737277
5220.56641229
5220.63465205
5220.69306439
5220.74215735
5220.78463954
5220.81953266
5220.85504953
5220.88109819
5220.92415678
5220.93760524
5221.00139124
5220.97341117
5217.75423014
5217.60797643
5217.51986529
5217.42078308
5217.39057114
5217.3889809
5217.43185864
5217.50192448
5217.59801274
5217.71209536
5217.84060663
5217.97911747
5218.12448675
5218.27368512
5218.42413365
5218.5734631
5218.71956596
5218.86055875
5218.99479934
5219.12088615
5219.23767311
5219.34427048
5219.44005779
5219.52467255
5219.59799155
5219.66011947
5219.71138083
5219.75228802
5219.78360923
5219.80618529
5219.82142526
5219.83015823
5219.83539482
5219.83609062
5219.84069145
5219.83821692
5219.85618766
5219.84575956
5219.89144431
5219.8487271
5217.93186395
5217.77962348
5217.68365611
5217.57185107
5217.52751077
5217.50911369
5217.53352426
5217.58295521
5217.65628168
5217.7451697
5217.84588799
5217.95381574
5218.06568493
5218.17837735
5218.28927691
5218.39602672
5218.49658418
5218.58918569
5218.67236544
5218.74495793
5218.80611031
5218.85528402
5218.89225752
5218.9171132
5218.93021711
5218.93219534
5218.92391788
5218.90644872
5218.88110239
5218.84922743
5218.81270566
5218.77270456
5218.7325699
5218.69120244
5218.65741106
5218.61940273
5218.60617308
5218.56676524
5218.59102433
5218.53169596
5218.1278707
5217.96926679
5217.86564429
5217.74087432
5217.68201435
5217.6458059
5217.6502085
5217.67680786
5217.72457286
5217.78485594
5217.85378989
5217.92656769
5217.99980398
5218.07029421
5218.13538989
5218.19275334
5218.2404195
5218.27676394
5218.30052481
5218.31080807
5218.3070986
5218.28926101
5218.25753537
5218.21251976
5218.15514413
5218.08663458
5218.00848563
5217.92239091
5217.83028553
5217.73409284
5217.63623002
5217.53825266
5217.44390621
5217.35207395
5217.27206385
5217.19128824
5217.14058153
5217.06674351
5217.06576979
5216.98732734
5218.34097781
5218.17534863
5218.06368031
5217.92507419
5217.85070224
5217.79517054
5217.77759917
5217.77881492
5217.79789858
5217.8258584
5217.85869736
5217.8914138
5217.92050366
5217.94267205
5217.95523846
5217.95588885
5217.94274713
5217.91434729
5217.86965989
5217.80810011
5217.72953859
5217.63430061
5217.52315628
5217.3972966
5217.25829904
5217.10807872
5216.94884657
5216.78301894
5216.61324432
5216.44211037
5216.27265926
5216.10691624
5215.94912496
5215.79822151
5215.66417364
5215.53361335
5215.43956743
5215.32634749
5215.29688023
5215.1970885
5218.56732609
5218.39398542
5218.27368724
5218.12009742
5218.02887883
5217.95216045
5217.91029661
5217.88323137
5217.87016267
5217.86171425
5217.8537519
5217.84106178
5217.82001177
5217.78720764
5217.73993356
5217.67590161
5217.59333522
5217.49094652
5217.36796861
5217.22416678
5217.05984993
5216.87586774
5216.67359555
5216.45490281
5216.2221083
5215.97791677
5215.72536102
5215.46768836
5215.20837021
5214.95076659
5214.69865278
5214.4546229
5214.22352937
5214.0044331
5213.80810873
5213.62038095
5213.4767809
5213.31881481
5213.25715731
5213.1334598
5218.80423439
5218.62242831
5218.49270934
5218.32273327
5218.21303858
5218.11297346
5218.0442025
5217.98566682
5217.93667641
5217.88742151
5217.83361235
5217.76979705
5217.69219876
5217.5973096
5217.48237117
5217.34512156
5217.18389297
5216.99759529
5216.78575544
5216.54853238
5216.2867297
5216.00179075
5215.69577804
5215.37133299
5215.03161919
5214.68024296
5214.32117713
5213.9586224
5213.59699789
5213.24056009
5212.89394136
5212.56041875
5212.24557493
5211.9486731
5211.68144076
5211.42885547
5211.22925546
5211.02100503
5210.92334934
5210.77316902
5219.04846263
5218.85743758
5218.7174257
5218.52953448
5218.3995551
5218.27377787
5218.17525657
5218.08181583
5217.99286825
5217.89811776
5217.79309374
5217.67207469
5217.53111679
5217.36657987
5217.17565223
5216.95609557
5216.70635876
5216.42556904
5216.1135796
5215.7709892
5215.39915648
5215.00019314
5214.57693749
5214.1329045
5213.67221568
5213.19950156
5212.71980524
5212.23841603
5211.76083868
5211.29236318
5210.8386144
5210.40367549
5209.99398483
5209.6090845
5209.26179283
5208.93618589
5208.67370255
5208.40922705
5208.27142453
5208.09203
5219.29705423
5219.09604853
5218.94480043
5218.73736671
5218.58515694
5218.43114441
5218.29984992
5218.16787208
5218.03471288
5217.88953391
5217.72765298
5217.54304256
5217.33156487
5217.08942478
5216.81374331
5216.50230094
5216.15366982
5215.76721376
5215.34314559
5214.88255221
5214.38741123
5213.86058223
5213.30577415
5212.72748472
5212.13091517
5211.52185296
5210.9065524
5210.29153803
5209.68354964
5209.08905878
5208.51482761
5207.96587613
5207.4496286
5206.96598331
5206.52898421
5206.12175019
5205.78911487
5205.46215566
5205.27982165
5205.0684207
5219.54700312
5219.3352676
5219.17181003
5218.94315911
5218.76669064
5218.58181612
5218.41459813
5218.24030405
5218.05850924
5217.85777516
5217.6331733
5217.37833001
5217.08888248
5216.76085457
5216.39128301
5215.97796003
5215.5195862
5215.0157808
5214.46715027
5213.8753198
5213.24295295
5212.57374115
5211.87236447
5211.14441924
5210.39631629
5209.6351414
5208.86851062
5208.10434013
5207.35076383
5206.61559168
5205.90687515
5205.23070799
5204.59563222
5204.0019812
5203.46515637
5202.96726101
5202.55682163
5202.16079506
5201.92929683
5201.68302921
5219.79545215
5219.5722519
5219.39559644
5219.1440337
5218.94123195
5218.72280864
5218.51643777
5218.29595423
5218.06098785
5217.79944085
5217.50610018
5217.1742028
5216.79912642
5216.37668472
5215.90381036
5215.37829814
5214.7989808
5214.16575127
5213.47964387
5212.74287367
5211.95885962
5211.13221259
5210.26868892
5209.37510527
5208.4592185
5207.52956172
5206.5952711
5205.66581913
5204.7509004
5203.85982774
5203.0020998
5202.18502412
5201.41839034
5200.7030489
5200.05589031
5199.45794931
5198.96174865
5198.48982365
5198.2043526
5197.92033546
5220.03964193
5219.80427861
5219.61344785
5219.33729556
5219.106079
5218.85140604
5218.60262582
5218.33204427
5218.0393239
5217.71164768
5217.34347679
5216.92761304
5216.45913722
5215.93362098
5215.34787076
5214.69967275
5213.98799398
5213.21301843
5212.37624262
5211.48052379
5210.53010757
5209.53061438
5208.48898567
5207.41338469
5206.31305612
5205.1981351
5204.07944286
5202.96817909
5201.87577189
5200.81320254
5199.79157536
5198.81955609
5197.90831753
5197.05930975
5196.29104113
5195.58342601
5194.9932882
5194.43845447
5194.09407575
5193.76943827
5220.27704863
5220.02883483
5219.82287479
5219.52049184
5219.2588042
5218.96521159
5218.67079428
5218.34623695
5217.99120905
5217.59211356
5217.14304222
5216.63631389
5216.06667276
5215.42941441
5214.7211948
5213.93977851
5213.08426753
5212.15515325
5211.15442816
5210.0856442
5208.9539457
5207.76605448
5206.53020817
5205.25604592
5203.95444574
5202.63730378
5201.31729579
5200.00751985
5198.72130796
5197.4714835
5196.27092187
5195.12979349
5194.06078424
5193.06602351
5192.16576028
5191.33873745
5190.64638646
5190.00155583
5189.59327553
5189.22519446
5220.50515087
5220.24355557
5220.02159575
5219.69143191
5219.39727918
5219.06218127
5218.7189912
5218.3366855
5217.91491009
5217.43922743
5216.90331404
5216.2989571
5215.62052285
5214.86299534
5214.02285412
5213.09782754
5212.08715188
5210.99164101
5209.81381619
5208.55797599
5207.2302353
5205.83850946
5204.39244428
5202.90328564
5201.38369222
5199.84748103
5198.30934425
5196.78445404
5195.28822844
5193.83550822
5192.44109881
5191.11681466
5189.87697914
5188.72447927
5187.68141688
5186.72531275
5185.92250764
5185.18063658
5184.70349116
5184.28923168
5220.72224343
5220.44663807
5220.20772217
5219.84822631
5219.51970354
5219.14065539
5218.74572339
5218.30208628
5217.80933182
5217.25212256
5216.62367372
5215.91519208
5215.1206241
5214.23460613
5213.25341439
5212.17472525
5210.99790714
5209.72411006
5208.35641537
5206.89991876
5205.36177626
5203.75118775
5202.07931868
5200.35915215
5198.60526777
5196.83355552
5195.06089926
5193.30472605
5191.58271263
5189.91188143
5188.30912369
5186.78803837
5185.36470738
5184.04285157
5182.84651878
5181.75193806
5180.83062434
5179.98488171
5179.43407449
5178.97110818
5220.92598585
5220.63600226
5220.37925061
5219.98917019
5219.6245982
5219.19940022
5218.75000735
5218.241734
5217.67407604
5217.03074169
5216.30443971
5215.48574936
5214.56815587
5213.54591189
5212.41506314
5211.17321739
5209.81987179
5208.35652455
5206.78684639
5205.1167783
5203.3545855
5201.51084119
5199.5983392
5197.63191483
5195.62820896
5193.60534921
5191.58257915
5189.57974305
5187.61694142
5185.7135423
5183.88867342
5182.15785285
5180.53903539
5179.0368627
5177.67744378
5176.43570283
5175.38846775
5174.43243974
5173.8031991
5173.28940338
5221.11476753
5220.80970816
5220.53470339
5220.11295819
5219.71093445
5219.23766576
5218.73141517
5218.15556368
5217.50948632
5216.77588632
5215.94692313
5215.01250391
5213.96561289
5212.80008429
5211.51170644
5210.09800164
5208.55859136
5206.89533208
5205.11251067
5203.21695839
5201.21811428
5199.12800866
5196.96115212
5194.73435453
5192.46646456
5190.17799286
5187.89069138
5185.62698179
5183.40954764
5181.2602541
5179.20060108
5177.2481434
5175.42279741
5173.73018244
5172.19852723
5170.80154501
5169.62137328
5168.54868932
5167.8360936
5167.26844868
5221.28736349
5220.96720922
5220.67331973
5220.21896847
5219.77824136
5219.25526861
5218.69012307
5218.04418822
5217.31667978
5216.48924745
5215.55345986
5214.49851047
5213.31684527
5212.00184748
5210.54902238
5208.95579026
5207.22189154
5205.34954911
5203.3436897
5201.21207601
5198.96537956
5196.6171495
5194.18371163
5191.68397306
5189.13910824
5186.57214318
5184.0074839
5181.47027755
5178.98593415
5176.57895269
5174.27332189
5172.08873306
5170.04712758
5168.15512844
5166.44307364
5164.88318752
5163.56346102
5162.36860896
5161.56926267
5160.94634053
5221.44302167
5221.10746957
5220.79433082
5220.30671708
5219.82638363
5219.25247851
5218.62686647
5217.90888104
5217.09754269
5216.17340629
5215.12741294
5213.94800639
5212.6270617
5211.15748209
5209.53446656
5207.75531769
5205.81988897
5203.73077576
5201.49356503
5199.11698675
5196.61298125
5193.99668788
5191.28634292
5188.50304036
5185.67038989
5182.81405757
5179.96123307
5177.13991991
5174.37838303
5171.70387461
5169.14297313
5166.71758595
5164.45172322
5162.35301107
5160.45390909
5158.72510831
5157.26069805
5155.93929897
5155.05028532
5154.37014658
5221.58079046
5221.22982084
5220.89727152
5220.37608583
5219.85563405
5219.23004589
5218.5429406
5217.75156505
5216.85471132
5215.83180813
5214.67313958
5213.3663718
5211.90278255
5210.27477134
5208.47721114
5206.50727287
5204.36491688
5202.05311517
5199.57813143
5196.94967814
5194.18100771
5191.28891787
5188.29361634
5185.21846495
5182.08960613
5178.93545131
5175.78608477
5172.67248159
5169.62587032
5166.67635612
5163.85319236
5161.18056765
5158.68460285
5156.37394789
5154.28323119
5152.38151405
5150.76895339
5149.3173122
5148.3357842
5147.5970062
5221.70034286
5221.33400226
5220.98208103
5220.42734964
5219.86669827
5219.18920857
5218.44019795
5217.57480007
5216.59154939
5215.46872884
5214.19594617
5212.76007221
5211.15176962
5209.36291728
5207.38804701
5205.22418642
5202.87139678
5200.33302843
5197.61602369
5194.731093
5191.69284471
5188.51976985
5185.23409735
5181.86152282
5178.43079709
5174.97316213
5171.52168974
5168.11041598
5164.77362066
5161.54433967
5158.45456774
5155.53082133
5152.80134954
5150.27580228
5147.99091556
5145.91392994
5144.1510171
5142.56697903
5141.49096976
5140.69297049
5221.80139717
5221.41990115
5221.0489188
5220.46108408
5219.86065038
5219.13163799
5218.32098908
5217.38171066
5216.31205836
5215.08916499
5213.70195618
5212.13650284
5210.3828454
5208.4323336
5206.27914861
5203.92016601
5201.35554201
5198.58900105
5195.62815651
5192.48473919
5189.17472899
5185.71832968
5182.13982557
5178.46728855
5174.73213095
5170.96848898
5167.21248571
5163.50128297
5159.87227391
5156.36147596
5153.00367457
5149.82773338
5146.86401475
5144.1231145
5141.64376158
5139.39123854
5137.47761957
5135.76056596
5134.5893878
5133.73150222
5221.88406314
5221.48776517
5221.09832563
5220.47827925
5219.83902718
5219.05951661
5218.18822435
5217.17603063
5216.02090361
5214.69884058
5213.19809666
5211.50395366
5209.60583544
5207.49456341
5205.16396483
5202.61075772
5199.83518732
5196.84133436
5193.63748497
5190.23639488
5186.65540981
5182.91645242
5179.04587182
5175.07413418
5171.03534259
5166.96655989
5162.90699682
5158.89697508
5154.97703178
5151.18622383
5147.56213077
5144.13598401
5140.94023981
5137.98638277
5135.31502287
5132.88927314
5130.82693079
5128.9780743
5127.71240007
5126.79473327
5221.94838712
5221.53782003
5221.13090921
5220.48007649
5219.80358576
5218.97529201
5218.04510608
5216.96180022
5215.72306893
5214.30381316
5212.69165213
5210.87110755
5208.83100686
5206.56165417
5204.05652645
5201.31218195
5198.32894178
5195.11122902
5191.66800017
5188.01301447
5184.16496859
5180.1474882
5175.9889725
5171.72227132
5167.38417546
5163.01467675
5158.6560748
5154.35186082
5150.14574204
5146.07980999
5142.19447166
5138.52333503
5135.10094516
5131.93961793
5129.08170725
5126.48791225
5124.28139805
5122.3041893
5120.94621519
5119.96956667
5221.99505663
5221.57092914
5221.14796146
5220.46835551
5219.75686958
5218.88222767
5217.89566848
5216.74389854
5215.42438617
5213.91100412
5212.19079844
5210.24757889
5208.0696119
5205.64670471
5202.9719935
5200.04187568
5196.85673052
5193.4213136
5189.74522842
5185.84320548
5181.73526029
5177.44668202
5173.00787626
5168.45403137
5163.82458746
5159.162437
5154.51294906
5149.92275413
5145.43871674
5141.10597461
5136.96779133
5133.0601816
5129.4198086
5126.05979323
5123.02414413
5120.27086445
5117.92804714
5115.82887248
5114.3831171
5113.34906637
5222.02369332
5221.58702856
5221.15003936
5220.44440605
5219.70089131
5218.78303777
5217.74332443
5216.52647606
5215.12983713
5213.52635649
5211.7026044
5209.64174608
5207.33153784
5204.76131908
5201.92390051
5198.81551463
5195.43658657
5191.79218819
5187.89253058
5183.75327285
5179.3957016
5174.84670813
5170.13862463
5165.30889502
5160.39953791
5155.45629367
5150.52753322
5145.66296375
5140.91258514
5136.32457448
5131.94509819
5127.81262873
5123.96605604
5120.4193396
5117.2181214
5114.31738101
5111.84956711
5109.63784609
5108.11105376
5107.02173511
5222.03648357
5221.58864991
5221.1403102
5220.41216872
5219.64031699
5218.68308069
5217.59412421
5216.31632655
5214.84708118
5213.1585522
5211.23696755
5209.0649289
5206.62974548
5203.92032142
5200.92915945
5197.65232038
5194.09026432
5190.24834755
5186.13733836
5181.77376463
5177.1801189
5172.38480469
5167.42195809
5162.33115128
5157.1568792
5151.94765422
5146.75473209
5141.63079583
5136.62894092
5131.80037792
5127.19424946
5122.85161628
5118.81384995
5115.09592318
5111.74534846
5108.71385537
5106.13768247
5103.82841648
5102.23231416
5101.09212207
5222.03029074
5221.57350402
5221.11750668
5220.37134585
5219.57548283
5218.58311591
5217.44914958
5216.11484026
5214.57790792
5212.80989917
5210.79687102
5208.52094705
5205.96906139
5203.12971652
5199.99512363
5196.56117058
5192.82833915
5188.80222948
5184.49411163
5179.92130857
5175.10744218
5170.08233519
5164.88175303
5159.54721722
5154.12557199
5148.66802216
5143.2285202
5137.86258782
5132.6263577
5127.57404032
5122.75785967
5118.22162462
5114.00957656
5110.13797748
5106.65672847
5103.51410826
5100.84967234
5098.46134062
5096.8104276
5095.62437342
5222.01285376
5221.55048988
5221.09135886
5220.33265073
5219.51770875
5218.49500074
5217.3208409
5215.93517418
5214.33643255
5212.49571585
5210.39910992
5208.02833379
5205.37001956
5202.41229493
5199.14709462
5195.57013032
5191.68188345
5187.48814894
5183.00062623
5178.23732863
5173.22289983
5167.98850512
5162.57126387
5157.01436917
5151.3669549
5145.68278983
5140.01819733
5134.43136958
5128.98137683
5123.72536317
5118.71877393
5114.00838991
5109.6419465
5105.63758207
5102.04874603
5098.82068178
5096.09637588
5093.6583048
5091.97818514
5090.75853549
5221.97138453
5221.50887953
5221.052014
5220.28672957
5219.45727237
5218.40834688
5217.19810543
5215.76555115
5214.11031481
5212.2031617
5210.03040763
5207.57340283
5204.8185442
5201.75360187
5198.37025218
5194.6640292
5190.63539414
5186.29029226
5181.6407828
5176.70545677
5171.50982563
5166.08646692
5160.47354165
5154.71531813
5148.86342682
5142.9740022
5137.10529156
5131.31802105
5125.6740347
5120.23327647
5115.05448616
5110.18755362
5105.68440402
5101.56562177
5097.88990311
5094.6001021
5091.84384916
5089.38676879
5087.70546194
5086.46741538
5221.93221087
5221.47903542
5221.03052977
5220.26598356
5219.42714329
5218.35697059
5217.11603678
5215.64284195
5213.93878106
5211.97432547
5209.73621917
5207.20544214
5204.36821924
5201.21197371
5197.72814882
5193.91210127
5189.76425
5185.29064045
5180.50360749
5175.42219157
5170.07251166
5164.48835375
5158.70891877
5152.77901639
5146.75266462
5140.68792654
5134.64452886
5128.68549193
5122.87511507
5117.27588232
5111.94977168
5106.94979951
5102.3327709
5098.12241449
5094.38494032
5091.06264112
5088.31001354
5085.87829579
5084.23876054
5083.01333716
5221.85749323
5221.42275339
5220.98487704
5220.22451424
5219.37758075
5218.28790413
5217.01907509
5215.50916441
5213.76167653
5211.74658554
5209.45115633
5206.85593248
5203.94701991
5200.7115121
5197.14066042
5193.22966309
5188.97889511
5184.39447385
5179.48895762
5174.28175057
5168.79956957
5163.07662917
5157.15325645
5151.07540441
5144.89786879
5138.68094494
5132.48538936
5126.37625019
5120.41984768
5114.68080812
5109.22400918
5104.10513369
5099.3860808
5095.09381831
5091.30457757
5087.9623393
5085.234739
5082.86381134
5081.31132272
5080.14581923
5221.82135725
5221.42482602
5221.00160376
5220.25245595
5219.4018645
5218.2984111
5217.00931185
5215.47246448
5213.69376543
5211.64256056
5209.30669924
5206.66627101
5203.70732114
5200.41665817
5196.7853948
5192.80860465
5188.48661868
5183.82557539
5178.83816346
5173.54401704
5167.97021208
5162.15109546
5156.12745995
5149.94730785
5143.66487293
5137.34161011
5131.03954488
5124.82491748
5118.76552726
5112.92748723
5107.37790739
5102.1744434
5097.3835472
5093.03485261
5089.21483593
5085.87025396
5083.18302987
5080.89652494
5079.44780406
5078.3800215
5221.74645182
5221.37705563
5220.95298878
5220.20653996
5219.34717657
5218.2307929
5216.9258359
5215.3696527
5213.56928252
5211.49337013
5209.13009417
5206.4592402
5203.46689903
5200.1397797
5196.46899864
5192.4496349
5188.08208118
5183.37255616
5178.33386009
5172.98576813
5167.35551374
5161.47806704
5155.39359692
5149.15058291
5142.80466945
5136.41702472
5130.05007593
5123.77087983
5117.64778682
5111.74734114
5106.13745813
5100.87616843
5096.03190572
5091.63488947
5087.7782547
5084.4122055
5081.73455963
5079.50498124
5078.15630029
5077.21287613
5054.0944677
5054.07920008
5054.13170587
5054.17487405
5054.26691114
5054.37493835
5054.51819098
5054.68449967
5054.87784168
5055.09318453
5055.32978745
5055.5846492
5055.85576367
5056.14060833
5056.43686641
5056.74211401
5057.05398882
5057.37010846
5057.68817438
5058.00586208
5058.32110867
5058.6315735
5058.93496713
5059.22975857
5059.51373492
5059.78514503
5060.04216875
5060.28309802
5060.50631984
5060.71013824
5060.89325193
5061.05354944
5061.19077824
5061.30072004
5061.38717169
5061.43847123
5061.47217757
5061.45722171
5061.4481301
5061.38676929
5054.07110722
5054.03641765
5054.07226381
5054.10223558
5054.18370253
5054.28391843
5054.42016211
5054.58025295
5054.7671446
5054.97580763
5055.20517021
5055.45223917
5055.71493066
5055.99073767
5056.27734414
5056.57235519
5056.87343854
5057.1782595
5057.48457554
5057.79014082
5058.09300597
5058.39064528
5058.68117378
5058.96297592
5059.23401371
5059.49260065
5059.7370325
5059.96571023
5060.17713678
5060.36976812
5060.54245271
5060.6934134
5060.8227244
5060.92717474
5061.01155924
5061.06664178
5061.11250776
5061.11868259
5061.13980268
5061.09058476
5054.12024833
5054.07014273
5054.0956759
5054.11054592
5054.17835409
5054.26689763
5054.39314286
5054.5448926
5054.72407431
5054.92539174
5055.14724894
5055.38649071
5055.64084556
5055.90774461
5056.18482294
5056.46968111
5056.75999605
5057.05347011
5057.34790313
5057.64111813
5057.93109936
5058.21559105
5058.49281376
5058.76110972
5059.01868218
5059.26394878
5059.49537897
5059.71155727
5059.91120968
5060.09308102
5060.25635786
5060.39977139
5060.52389569
5060.62630881
5060.71217124
5060.77239279
5060.82604316
5060.83809563
5060.85952262
5060.79812601
5054.15512018
5054.09273418
5054.10321295
5054.10050442
5054.15165539
5054.2250687
5054.33748974
5054.47660929
5054.64349148
5054.8324885
5055.04148424
5055.26710375
5055.5068688
5055.75812793
5056.01846535
5056.28548311
5056.5568847
5056.83043376
5057.10399998
5057.37551028
5057.64301935
5057.90454118
5058.15839949
5058.40307428
5058.63703133
5058.85890668
5059.06743161
5059.26147078
5059.44006821
5059.60234237
5059.74789943
5059.87600229
5059.98775823
5060.08138376
5060.16249058
5060.22191687
5060.27889809
5060.29446634
5060.32055145
5060.24968631
5054.24130332
5054.16892807
5054.16598476
5054.14675198
5054.18156449
5054.23924815
5054.33684855
5054.46193164
5054.61497781
5054.78996179
5054.9842984
5055.19435051
5055.41741802
5055.6507368
5055.89182349
5056.13826733
5056.38779211
5056.6382181
5056.88749029
5057.1336491
5057.3748749
5057.60942593
5057.83580001
5058.05265581
5058.25874096
5058.45296396
5058.63436968
5058.8021573
5058.95574089
5059.09464822
5059.21892741
5059.32831807
5059.42438154
5059.5056768
5059.57804429
5059.6317495
5059.6860911
5059.69875389
5059.7232946
5059.64395128
5054.34104677
5054.26120061
5054.24684432
5054.21261935
5054.23175501
5054.27328076
5054.35481583
5054.46377745
5054.60030896
5054.75804298
5054.93402262
5055.12436036
5055.32615651
5055.53653472
5055.75294968
5055.9729826
5056.19438887
5056.41506149
5056.63304938
5056.84654339
5057.05390392
5057.25364159
5057.44448783
5057.62536494
5057.79534528
5057.95367941
5058.09978713
5058.23326127
5058.35393245
5058.46175928
5058.55723014
5058.64049716
5058.71350802
5058.77499042
5058.83100245
5058.8711346
5058.91512839
5058.91786464
5058.93543371
5058.84614149
5054.47574691
5054.38898776
5054.36479106
5054.31678271
5054.32109536
5054.34650198
5054.41139421
5054.50295877
5054.62117629
5054.75936297
5054.91427152
5055.08178061
5055.25881253
5055.44238055
5055.62988089
5055.8188883
5056.00719626
5056.19278113
5056.37381644
5056.5486673
5056.71590949
5056.87432542
5057.02293567
5057.16098301
5057.2879101
5057.40336313
5057.50718704
5057.59941476
5057.68032945
5057.75033604
5057.81036009
5057.86092117
5057.90431342
5057.93934158
5057.97232983
5057.99223311
5058.01963883
5058.00727424
5058.01460979
5057.91603441
5054.63112371
5054.53814717
5054.50569023
5054.44498564
5054.43515905
5054.44427718
5054.49165375
5054.56416815
5054.6617723
5054.7774966
5054.907877
5055.04858388
5055.19638784
5055.34820165
5055.50137246
5055.65347682
5055.80235887
5055.94609625
5056.08301339
5056.211681
5056.33092991
5056.4398521
5056.53781305
5056.62444069
5056.69960699
5056.76341747
5056.81620225
5056.85848989
5056.89106068
5056.91479297
5056.93106047
5056.94073016
5056.9464298
5056.94699138
5056.94906959
5056.94099822
5056.94457091
5056.91061393
5056.9028829
5056.79250148
5054.8112509
5054.71169089
5054.67144295
5054.59817199
5054.57420076
5054.56641225
5054.59512059
5054.64677751
5054.72137492
5054.81165821
5054.91398993
5055.02384527
5055.13785932
5055.25284971
5055.36612092
5055.47525794
5055.57816719
5055.67304468
5055.7583908
5055.83301297
5055.89603681
5055.94690788
5055.98539401
5056.01157242
5056.02580953
5056.02873843
5056.02124149
5056.00440694
5055.97957022
5055.94813034
5055.91194868
5055.87226383
5055.83207845
5055.7902807
5055.75400409
5055.71106102
5055.68491104
5055.62464576
5055.59919001
5055.47610649
5055.00997211
5054.90351078
5054.85568361
5054.76959922
5054.73104318
5054.70530523
5054.71377565
5054.74236479
5054.79114693
5054.85257139
5054.92285217
5054.99727378
5055.07234432
5055.14478855
5055.21187271
5055.27119689
5055.32074217
5055.35884206
5055.38420035
5055.39589638
5055.39339524
5055.37654832
5055.34558895
5055.30111499
5055.24406265
5055.17567202
5055.09745776
5055.01114677
5054.91870505
5054.8221206
5054.72380636
5054.62542473
5054.53042046
5054.43778396
5054.3552699
5054.2702135
5054.2081312
5054.11630343
5054.06971363
5053.93174999
5055.22599591
5055.11195499
5055.05619285
5054.95646206
5054.90232862
5054.8571235
5054.84337588
5054.84633231
5054.86616232
5054.89498907
5054.92888147
5054.96292469
5054.99349765
5055.01722823
5055.03134436
5055.03346544
5055.02165826
5054.99441285
5054.9506648
5054.88980323
5054.81168086
5054.71661291
5054.60536713
5054.47914003
5054.33952217
5054.18845064
5054.02816539
5053.86112612
5053.69002296
5053.51752329
5053.34668116
5053.17966566
5053.02046266
5052.86824276
5052.73155212
5052.59730054
5052.49346332
5052.36535675
5052.29488116
5052.14040678
5055.45548015
5055.33318516
5055.26895408
5055.15447968
5055.08344612
5055.01691121
5054.97861442
5054.95302488
5054.94040949
5054.9325264
5054.92529025
5054.91356911
5054.89360249
5054.86191195
5054.8156833
5054.75255721
5054.67069638
5054.56876679
5054.44596578
5054.30203324
5054.13726219
5053.9524958
5053.74911217
5053.52899275
5053.29447731
5053.04830173
5052.7935379
5052.53348783
5052.27167623
5052.01155854
5051.7569383
5051.51059189
5051.27715833
5051.05607069
5050.85682874
5050.66593552
5050.51419308
5050.34472355
5050.24722694
5050.07421995
5055.69571988
5055.56439345
5055.49093759
5055.36035671
5055.27080072
5055.18077128
5055.11529101
5055.05794094
5055.00907781
5054.96004759
5054.90659049
5054.84333139
5054.76635279
5054.67205498
5054.55757372
5054.42057031
5054.25931212
5054.07266041
5053.86010539