/*--------------------------------*- C++ -*----------------------------------*\
| =========                 |                                                 |
| \\      /  F ield         | foam-extend: Open Source CFD                    |
|  \\    /   O peration     | Version:     4.1                                |
|   \\  /    A nd           | Web:         http://www.foam-extend.org         |
|    \\/     M anipulation  |                                                 |
\*---------------------------------------------------------------------------*/
FoamFile
{
    version     2.0;
    format      ascii;
    class       volScalarField;
    location    "0.4";
    object      pd;
}
// * * * * * * * * * * * * * * * * * * * * * * * * * * * * * * * * * * * * * //

dimensions      [1 -1 -2 0 0 0 0];

internalField   nonuniform List<scalar> 
96000
(
5298.86144388
5298.83271107
5298.87469194
5298.91165541
5298.99985891
5299.10512785
5299.24616709
5299.41029727
5299.60141482
5299.8143547
5300.04838361
5300.30048155
5300.56866166
5300.85041169
5301.14343149
5301.44531363
5301.75371507
5302.06627229
5302.38071164
5302.69472965
5303.00617048
5303.31302546
5303.61269418
5303.90383244
5304.18420837
5304.45210465
5304.70571815
5304.94335997
5305.1634368
5305.3642659
5305.54457871
5305.70227585
5305.83721682
5305.94524848
5306.03061765
5306.08198153
5306.11840919
5306.1095338
5306.11372287
5306.06923785
5298.82491453
5298.75986132
5298.77374077
5298.78945707
5298.86467837
5298.96127096
5299.09559977
5299.25391144
5299.43912474
5299.645868
5299.87314423
5300.11791702
5300.37815205
5300.65135511
5300.93523964
5301.22742991
5301.52561617
5301.82748243
5302.13080516
5302.43334854
5302.73320057
5303.02788795
5303.31545196
5303.59435988
5303.86256691
5304.11841025
5304.36019315
5304.58632377
5304.79531159
5304.98559793
5305.15604623
5305.30480913
5305.43207017
5305.53444387
5305.61736945
5305.67152534
5305.71999715
5305.73268265
5305.77744315
5305.76447976
5298.86375444
5298.77167383
5298.75962488
5298.75054386
5298.80710146
5298.88971523
5299.01323376
5299.16290143
5299.34030319
5299.53959174
5299.75921678
5299.9959638
5300.24762351
5300.51164882
5300.78571482
5301.06744884
5301.35455673
5301.64476416
5301.93589659
5302.22579522
5302.51248957
5302.79371551
5303.06771776
5303.33286349
5303.58736797
5303.82966506
5304.05823313
5304.27165981
5304.46867446
5304.64800034
5304.80884196
5304.94986403
5305.07183522
5305.17229755
5305.25758679
5305.31926927
5305.38122392
5305.40999927
5305.4741077
5305.46544846
5298.89249253
5298.77959222
5298.74273109
5298.70901508
5298.74478088
5298.81015006
5298.91895237
5299.05560272
5299.22051158
5299.40729482
5299.61383441
5299.83668186
5300.07342936
5300.32145739
5300.57840016
5300.8418948
5301.10968009
5301.37954926
5301.64940207
5301.91719239
5302.18100542
5302.4388683
5302.68912524
5302.93028258
5303.16081965
5303.37938803
5303.58472763
5303.77570482
5303.95136618
5304.1108085
5304.25366918
5304.3791742
5304.48873733
5304.58071925
5304.66238086
5304.7257223
5304.79582252
5304.83555957
5304.9160215
5304.91386933
5298.97483596
5298.84940689
5298.79414218
5298.73980579
5298.75649427
5298.80463133
5298.89797018
5299.02037073
5299.17142369
5299.34422385
5299.53613279
5299.74342482
5299.96347256
5300.19355099
5300.43123352
5300.67415027
5300.92006451
5301.16682957
5301.41242245
5301.65491128
5301.89250443
5302.12347856
5302.34635362
5302.55980783
5302.76260386
5302.95366241
5303.13203576
5303.29692243
5303.44773885
5303.58399359
5303.70578061
5303.8128325
5303.90709967
5303.98739844
5304.06145504
5304.12082878
5304.19090026
5304.23079098
5304.31376725
5304.30664665
5299.07170672
5298.93785373
5298.86889728
5298.79749721
5298.79703044
5298.82818176
5298.90513068
5299.01135472
5299.14596719
5299.30162767
5299.47529233
5299.66297608
5299.86185524
5300.06909926
5300.2822257
5300.4988617
5300.71680554
5300.93398592
5301.14848468
5301.35852119
5301.56248214
5301.75889903
5301.94652269
5302.12429269
5302.29129403
5302.44678635
5302.59019381
5302.72110515
5302.83935114
5302.94486966
5303.03820062
5303.11949802
5303.19113268
5303.2521059
5303.31041927
5303.35684591
5303.41717543
5303.44733487
5303.52357103
5303.50736302
5299.20402508
5299.06357455
5298.98401126
5298.89798611
5298.882091
5298.89681476
5298.95708334
5299.04601632
5299.16249893
5299.2988197
5299.45162928
5299.61670527
5299.79105099
5299.97173177
5300.1562119
5300.34211619
5300.5272835
5300.7097275
5300.88765484
5301.05945891
5301.22374028
5301.37930125
5301.52517946
5301.66063098
5301.78510761
5301.89825986
5301.9999327
5302.09015002
5302.16918907
5302.23742745
5302.29583784
5302.34492895
5302.38741106
5302.42230623
5302.45782553
5302.48387303
5302.5269252
5302.54036203
5302.60413462
5302.57617554
5299.35699547
5299.21074722
5299.12265649
5299.02358825
5298.9933779
5298.99178092
5299.03465042
5299.10471029
5299.20079566
5299.31487668
5299.44338687
5299.58189693
5299.72726587
5299.87646392
5300.02691218
5300.17624126
5300.32234366
5300.46333589
5300.59757603
5300.72366248
5300.84044908
5300.94704628
5301.0428336
5301.12744851
5301.20076774
5301.2628959
5301.31415743
5301.35506418
5301.38638438
5301.40895883
5301.42419688
5301.43292869
5301.43816448
5301.43886081
5301.44346317
5301.44098748
5301.45895198
5301.44851214
5301.49418521
5301.45148834
5299.53462963
5299.38239521
5299.28644825
5299.17465705
5299.13031814
5299.11191401
5299.13631613
5299.18574098
5299.25906448
5299.34795095
5299.44866821
5299.5565952
5299.66846407
5299.78115624
5299.89205561
5299.99880507
5300.0993621
5300.19196311
5300.27514242
5300.34773455
5300.40888658
5300.45806012
5300.49503357
5300.51988936
5300.53299348
5300.53497195
5300.5266946
5300.50922497
5300.48387759
5300.4520009
5300.41547699
5300.37547436
5300.33533896
5300.29397202
5300.26018112
5300.22217156
5300.20893556
5300.16951584
5300.19376381
5300.13445555
5299.73063722
5299.57204001
5299.46843778
5299.34368151
5299.2848228
5299.24860707
5299.25300108
5299.27959423
5299.32735611
5299.38763767
5299.4565707
5299.52934777
5299.60258354
5299.67307352
5299.73816907
5299.79553234
5299.84319807
5299.87954189
5299.90330219
5299.91358503
5299.90987523
5299.89203745
5299.86031176
5299.81529627
5299.75792084
5299.68941154
5299.61126276
5299.52516774
5299.4330614
5299.33686694
5299.23900156
5299.14102227
5299.04667499
5298.95484308
5298.87483354
5298.79405642
5298.74334307
5298.66949298
5298.66850767
5298.59008583
5299.94374556
5299.77812263
5299.66647444
5299.5278819
5299.45351112
5299.39797198
5299.3803919
5299.3816014
5299.40068193
5299.42864027
5299.46147839
5299.49419423
5299.52328366
5299.54545185
5299.55801815
5299.55866833
5299.54552617
5299.51712569
5299.47243758
5299.41087734
5299.33231543
5299.23707725
5299.12593286
5299.0000733
5298.86107595
5298.71085585
5298.55162384
5298.38579605
5298.2160206
5298.0448848
5297.87543092
5297.7096856
5297.55189311
5297.40098991
5297.26694277
5297.13638056
5297.04232765
5296.92909547
5296.89961624
5296.79984565
5300.17009414
5299.99675924
5299.87648111
5299.72290478
5299.63168733
5299.5549614
5299.51308877
5299.48601722
5299.47294539
5299.46449564
5299.45653245
5299.44384172
5299.4227914
5299.38998719
5299.34271304
5299.27868087
5299.19611402
5299.09372465
5298.97074602
5298.82694354
5298.66262623
5298.47864382
5298.2763716
5298.05767901
5297.82488472
5297.58069345
5297.32813781
5297.07046503
5296.81114605
5296.55354052
5296.30142392
5296.05739145
5295.82629636
5295.60720039
5295.41087636
5295.22314637
5295.07953911
5294.92156063
5294.85988999
5294.73621517
5300.40700175
5300.22520136
5300.0955024
5299.92553977
5299.81584619
5299.71577347
5299.64699365
5299.58845163
5299.53945812
5299.4902019
5299.43639195
5299.37257613
5299.29497758
5299.20008835
5299.08514988
5298.94790003
5298.78667093
5298.60037255
5298.38853195
5298.15130822
5297.88950505
5297.60456591
5297.29855321
5296.97410827
5296.63439472
5296.28301873
5295.92395299
5295.56139809
5295.19977264
5294.84333281
5294.49671113
5294.16318579
5293.84834016
5293.55143855
5293.28420626
5293.03161862
5292.83201135
5292.62374832
5292.526079
5292.37592245
5300.65122912
5300.46020968
5300.32021777
5300.13233995
5300.00236171
5299.87657682
5299.77804663
5299.6845995
5299.59564883
5299.50089706
5299.39587231
5299.27485279
5299.13389465
5298.96935767
5298.77842996
5298.55887304
5298.3091357
5298.02834526
5297.71635502
5297.3737639
5297.00193069
5296.60296712
5296.17971141
5295.73567852
5295.27498993
5294.80227605
5294.32257986
5293.84119045
5293.3636121
5292.8951344
5292.44138252
5292.00644087
5291.59674783
5291.21184724
5290.86455618
5290.53894687
5290.27645624
5290.01196796
5289.87415314
5289.69478171
5300.89981995
5300.69881971
5300.54759153
5300.34017118
5300.18796256
5300.03394234
5299.90263892
5299.77065465
5299.63749236
5299.49231215
5299.3304305
5299.14581962
5298.9343417
5298.69220151
5298.41651994
5298.10507731
5297.75644563
5297.36998873
5296.94591966
5296.48532548
5295.99018401
5295.46335477
5294.9085466
5294.33025728
5293.73368799
5293.12462604
5292.50932564
5291.89431104
5291.28632155
5290.69182861
5290.11759435
5289.5686395
5289.05238982
5288.56874418
5288.13174571
5287.72450935
5287.39186679
5287.06489477
5286.88254921
5286.67117122
5301.14976815
5300.93803791
5300.77460017
5300.54596258
5300.36949531
5300.18461306
5300.01738609
5299.84308552
5299.66128763
5299.4605523
5299.23594971
5298.98110593
5298.69165813
5298.36363011
5297.99405841
5297.58073507
5297.12236059
5296.61855424
5296.06992275
5295.47809147
5294.84572407
5294.17651201
5293.47513528
5292.74719018
5291.99908744
5291.23791286
5290.47128225
5289.70711149
5288.95353428
5288.21836014
5287.5096402
5286.83346926
5286.19839203
5285.60474059
5285.06791635
5284.57001875
5284.15957231
5283.76353304
5283.53202357
5283.28577927
5301.39821647
5301.17502133
5300.99838559
5300.74683614
5300.54403565
5300.32560456
5300.11922466
5299.89873456
5299.66376506
5299.40221678
5299.10887534
5298.77697745
5298.40190075
5297.9794589
5297.50658431
5296.98107158
5296.40175349
5295.76852297
5295.08241454
5294.34564348
5293.5616288
5292.73498152
5291.87145786
5290.97787428
5290.06198767
5289.13233129
5288.19804086
5287.26858857
5286.35366914
5285.46259449
5284.60486302
5283.78778394
5283.02114877
5282.30580693
5281.65864894
5281.06070593
5280.56449855
5280.09256117
5279.80707946
5279.52308567
5301.6424055
5301.4070471
5301.21623595
5300.94009692
5300.70888168
5300.4542009
5300.20541159
5299.9348234
5299.64209986
5299.31442235
5298.94625064
5298.53038631
5298.06191012
5297.53639362
5296.95064311
5296.30244449
5295.59076483
5294.81578818
5293.97901127
5293.08329155
5292.13287467
5291.13338116
5290.09175241
5289.01615145
5287.91582312
5286.80090235
5285.68221023
5284.57094639
5283.47853885
5282.41596744
5281.39433659
5280.42231447
5279.51107476
5278.66206687
5277.8937985
5277.1861818
5276.59603765
5276.04119207
5275.69680366
5275.37218922
5301.87981143
5301.63160231
5301.4256618
5301.12329209
5300.86160584
5300.56800539
5300.27357895
5299.94901485
5299.59398373
5299.19488695
5298.74581471
5298.23908575
5297.66944417
5297.03218547
5296.32396545
5295.54254852
5294.68703649
5293.75792101
5292.75719474
5291.68840979
5290.55671062
5289.36881911
5288.13297271
5286.8588106
5285.55721073
5284.24006887
5282.92006104
5281.61028523
5280.32407326
5279.0742467
5277.87368096
5276.73255073
5275.66354055
5274.6687797
5273.76851664
5272.94149281
5272.24913587
5271.60429401
5271.1960046
5270.8279467
5302.10791288
5301.84632202
5301.62438164
5301.29423105
5301.00007982
5300.66497404
5300.32177482
5299.93946218
5299.51768351
5299.0419996
5298.50608523
5297.90172755
5297.22329277
5296.46576484
5295.62562308
5294.7005957
5293.68991897
5292.59440682
5291.41658077
5290.16073954
5288.83299819
5287.44127207
5285.99520683
5284.5060484
5282.98645535
5281.45024471
5279.91210823
5278.38721783
5276.89099223
5275.43827011
5274.04385654
5272.71957111
5271.47973465
5270.32723496
5269.28417313
5268.32806803
5267.52525766
5266.78337597
5266.30622155
5265.8919861
5302.32500459
5302.04940345
5301.81050695
5301.45102436
5301.12250322
5300.74344718
5300.34850601
5299.90486178
5299.41210403
5298.85489347
5298.22644361
5297.51796114
5296.72339253
5295.83737403
5294.85618164
5293.77749159
5292.60067235
5291.32687389
5289.95917791
5288.50268031
5286.96453727
5285.35394845
5283.68207943
5281.96191321
5280.20802935
5278.43631782
5276.6636621
5274.90748901
5273.18547544
5271.51464279
5269.91188105
5268.39079432
5266.96746248
5265.64560723
5264.44927542
5263.35469381
5262.4333759
5261.58762367
5261.03680618
5260.57386658
5302.52874604
5302.23876654
5301.98203426
5301.59196717
5301.22739694
5300.80219104
5300.35278896
5299.84450838
5299.27684704
5298.63351135
5297.90720821
5297.08851695
5296.17092276
5295.14867809
5294.01782861
5292.7759819
5291.42263499
5289.95928634
5288.38960688
5286.71953789
5284.95734455
5283.11360007
5281.20109831
5279.23467445
5277.23096927
5275.20811014
5273.1853408
5271.18250529
5269.2197037
5267.31630324
5265.49143066
5263.76060856
5262.14179039
5260.63961864
5259.28020081
5258.03846039
5256.99122228
5256.0351861
5255.40593805
5254.89216762
5302.7175267
5302.41247131
5302.13748592
5301.7157541
5301.31373225
5300.84045561
5300.33419575
5299.7583369
5299.11225604
5298.37865466
5297.54969016
5296.61526992
5295.56837804
5294.40284865
5293.11447002
5291.7007641
5290.16135243
5288.49809171
5286.71526905
5284.81971593
5282.82087132
5280.73076577
5278.56390979
5276.33711301
5274.06922374
5271.78075274
5269.49345203
5267.22974325
5265.01230966
5262.86301457
5260.80335832
5258.85089955
5257.02555301
5255.33293898
5253.8012863
5252.40430619
5251.22413232
5250.15144132
5249.43884093
5248.87121926
5302.89012179
5302.56997129
5302.27610114
5301.8217633
5301.38103821
5300.85805745
5300.29290256
5299.64696022
5298.91944815
5298.0920143
5297.15622528
5296.10127473
5294.91960851
5293.60460985
5292.15178379
5290.55855044
5288.82465028
5286.95230644
5284.94644584
5282.81483134
5280.56813462
5278.21990491
5275.78646799
5273.2867303
5270.74186619
5268.17490185
5265.61024353
5263.07303817
5260.58869574
5258.18171456
5255.8760799
5253.69148986
5251.64988392
5249.75788581
5248.045834
5246.48595254
5245.16622501
5243.97136721
5243.17202153
5242.5491169
5303.04577918
5302.71023056
5302.3971111
5301.90951084
5301.42917952
5300.85526631
5300.22964484
5299.51165176
5298.70030961
5297.77617154
5296.73017668
5295.55076875
5294.22982284
5292.76024225
5291.13722561
5289.35807543
5287.42264526
5285.33353068
5283.09631877
5280.71973991
5278.21573438
5275.59944186
5272.88909778
5270.10579609
5267.27314645
5264.41681507
5261.56399235
5258.74268018
5255.98114399
5253.30663721
5250.74573145
5248.32034326
5246.0544803
5243.95576923
5242.05667023
5240.32787533
5238.8634665
5237.54206509
5236.65305536
5235.97293052
5303.18354712
5302.83258073
5302.50005072
5301.97887852
5301.45842897
5300.83283263
5300.14571781
5299.35433445
5298.45747674
5297.43457173
5296.27590151
5294.96913216
5293.50554157
5291.87752917
5290.07996769
5288.11002812
5285.96767071
5283.6558676
5281.18088298
5278.55242942
5275.78375959
5272.89167073
5269.89637002
5266.82121947
5263.69236165
5260.538209
5257.38884343
5254.27524114
5251.22863038
5248.27911765
5245.45595044
5242.78332473
5240.2873605
5237.97670673
5235.88599642
5233.98428255
5232.37172567
5230.92008656
5229.93856235
5229.19979933
5303.30309862
5302.93676107
5302.58485914
5302.03014125
5301.4694922
5300.79199418
5300.04297393
5299.17756809
5298.19431328
5297.07149072
5295.79870613
5294.36283043
5292.75452637
5290.96567262
5288.99080102
5286.82693909
5284.47414813
5281.93577851
5279.21877328
5276.33384264
5273.29559538
5270.12252146
5266.83684989
5263.46427634
5260.03355293
5256.57591955
5253.1244481
5249.71317459
5246.37638184
5243.14710043
5240.05732535
5237.13357794
5234.40410672
5231.8785622
5229.59368465
5227.51670257
5225.75379441
5224.16975962
5223.09375329
5222.29577186
5303.40415196
5303.02265884
5302.65169572
5302.06387448
5301.46344314
5300.73442228
5299.92376359
5298.98447704
5297.91482059
5296.69192484
5295.30471392
5293.73925867
5291.98559956
5290.03508622
5287.88189988
5285.522916
5282.95829076
5280.19174887
5277.23090404
5274.08748728
5270.7774784
5267.32108006
5263.74257707
5260.07004292
5256.33488695
5252.57124594
5248.815243
5245.10404243
5241.47504589
5237.96423493
5234.60643241
5231.4304907
5228.46677242
5225.72587469
5223.24652945
5220.99401619
5219.08040309
5217.36335235
5216.19217829
5215.33431082
5303.4868169
5303.09052155
5302.70110113
5302.08106815
5301.44181838
5300.66229911
5299.79099686
5298.77879482
5297.62366351
5296.30159778
5294.80085159
5293.1067065
5291.20858636
5289.09731269
5286.76671278
5284.2135044
5281.43793284
5278.44407934
5275.24022998
5271.83914084
5268.25815763
5264.51920236
5260.64862376
5256.67688843
5252.63809785
5248.56931591
5244.50975723
5240.49974195
5236.57979174
5232.78898303
5229.16488872
5225.73874054
5222.54299448
5219.58913809
5216.91778713
5214.49205131
5212.42971854
5210.58086903
5209.31520252
5208.39755002
5303.5511396
5303.14057483
5302.73368293
5302.08286345
5301.40637477
5300.57807202
5299.64787579
5298.56456138
5297.3258254
5295.90656657
5294.29440312
5292.47385628
5290.43375349
5288.16439909
5285.65926985
5282.91492405
5279.93168293
5276.71396988
5273.27074141
5269.61575696
5265.76771373
5261.75023674
5257.59172362
5253.32502369
5248.98693073
5244.6174379
5240.25883347
5235.95461604
5231.74849852
5227.68256973
5223.79722642
5220.12608207
5216.70368873
5213.54236534
5210.68446796
5208.09068979
5205.88418872
5203.90699304
5202.54902974
5201.57239279
5303.59780752
5303.17368219
5302.75073304
5302.0711401
5301.35965582
5300.48500453
5299.49843461
5298.34665564
5297.02713824
5295.51375279
5293.79354444
5291.85032238
5289.67235302
5287.24944391
5284.57473106
5281.64461203
5278.45946638
5275.0240494
5271.34796499
5267.4459444
5263.33800275
5259.04942756
5254.61062482
5250.05678337
5245.42734404
5240.76519406
5236.1157037
5231.52550807
5227.04147235
5222.70872835
5218.57053526
5214.66292272
5211.02255094
5207.66253753
5204.62690337
5201.87364231
5199.53084283
5197.43168429
5195.98594223
5194.95190225
5303.62644265
5303.18977984
5302.75280876
5302.04718816
5301.30367467
5300.38581134
5299.34608678
5298.12922872
5296.73258451
5295.12910015
5293.30534504
5291.24448388
5288.93427308
5286.36405227
5283.52663229
5280.41824555
5277.03931719
5273.3949194
5269.49526375
5265.35600912
5260.99844086
5256.44945115
5251.74137126
5246.91164576
5242.00229326
5237.05904867
5232.13028675
5227.26571642
5222.51533749
5217.92731772
5213.54783883
5209.41536869
5205.56879721
5202.02209117
5198.82088346
5195.92015849
5193.45236901
5191.24066733
5189.71389009
5188.62458
5303.63923224
5303.19139976
5302.74307784
5302.01494876
5301.24309797
5300.28585151
5299.19688348
5297.91907571
5296.4498241
5294.76129143
5292.83970357
5290.66766184
5288.23247585
5285.5230498
5282.53188654
5279.25504687
5275.69299099
5271.85107576
5267.74006921
5263.37649793
5258.78285593
5253.98754683
5249.02470423
5243.93390197
5238.75963441
5233.55040937
5228.35748515
5223.23354684
5218.23168621
5213.40311905
5208.79698942
5204.45435728
5200.41659489
5196.69868085
5193.34811386
5190.31663744
5187.74049289
5185.43124869
5183.83516204
5182.69497687
5303.63303884
5303.17625309
5302.72027304
5301.97412432
5301.17826205
5300.18588473
5299.05190668
5297.71758703
5296.18064789
5294.41263518
5292.39960338
5290.12367604
5287.57178772
5284.73244092
5281.59784673
5278.1638933
5274.43106255
5270.40495467
5266.09684008
5261.52404105
5256.71017894
5251.68507705
5246.48450029
5241.14997154
5235.72832952
5230.27077697
5224.83127444
5219.46533942
5214.22910062
5209.17678199
5204.36060088
5199.82436699
5195.61232887
5191.74073639
5188.2594983
5185.1169039
5182.45249413
5180.06418394
5178.4132883
5177.22723852
5303.61560185
5303.15323843
5302.69412379
5301.93542733
5301.1204856
5300.09776717
5298.92359554
5297.53791864
5295.93916985
5294.09844808
5292.00183819
5289.63105851
5286.97274136
5284.01501472
5280.74981326
5277.17284881
5273.28460299
5269.09087052
5264.60335135
5259.84005916
5254.82563651
5249.59124733
5244.1740123
5238.61712575
5232.96971495
5227.2855457
5221.62095275
5216.03412522
5210.58412494
5205.32810608
5200.32151692
5195.61113821
5191.24469996
5187.24034427
5183.6515282
5180.42349254
5177.69920962
5175.26116021
5173.5810583
5172.36140921
5303.57413209
5303.11162672
5302.65477629
5301.88950234
5301.06004397
5300.01110812
5298.80085481
5297.36829023
5295.71304614
5293.80588743
5291.63312891
5289.17612029
5286.42125855
5283.35631409
5279.97296345
5276.26674063
5272.23810692
5267.89300762
5263.24350212
5258.30818176
5253.11255786
5247.68920704
5242.07628964
5236.3180731
5230.46618587
5224.57676173
5218.70805037
5212.92077949
5207.27679253
5201.83603182
5196.65723808
5191.79030437
5187.28716398
5183.16839974
5179.49270513
5176.20292635
5173.44669549
5170.98963624
5169.30834411
5168.07029585
5303.53495666
5303.08177969
5302.63328707
5301.86874921
5301.02990563
5299.95972208
5298.71877611
5297.24557068
5295.54150163
5293.57703993
5291.33892867
5288.80814744
5285.97092123
5282.81467357
5279.33084784
5275.51480066
5271.3669512
5266.89334492
5262.10631674
5257.02490728
5251.67523594
5246.09108809
5240.31166277
5234.38176741
5228.35541933
5222.29068441
5216.24729068
5210.28825563
5204.47787802
5198.87864462
5193.55253543
5188.55256813
5183.93555067
5179.72521145
5175.98775771
5172.66547903
5169.91287261
5167.48117233
5165.84165082
5164.61622333
5303.46023564
5303.02549291
5302.5876263
5301.82726918
5300.98033009
5299.89064152
5298.62179958
5297.11187779
5295.36438119
5293.34928351
5291.05384886
5288.45862021
5285.54970389
5282.31419379
5278.74334143
5274.83234483
5270.5815792
5265.99716187
5261.09165139
5255.88445253
5250.40228221
5244.67935347
5238.75599155
5232.67814925
5226.50062128
5220.28370202
5214.08814987
5207.97901419
5202.022615
5196.28357769
5190.82678219
5185.70791515
5180.98887612
5176.69663083
5172.90740863
5169.56519041
5166.83760798
5164.46669667
5162.9142203
5161.74870999
5303.42409687
5303.02756272
5302.60434416
5301.85519996
5301.00460058
5299.9011341
5298.61202129
5297.0751618
5295.29645426
5293.24524134
5290.90937208
5288.268942
5285.30999032
5282.01932564
5278.38806198
5274.41127325
5270.08928893
5265.42824863
5260.44084311
5255.14670725
5249.57291729
5243.75381419
5237.73019069
5231.5500506
5225.26762576
5218.94436857
5212.64230709
5206.42768463
5200.36830058
5194.53026601
5188.98069098
5183.77723519
5178.98635365
5174.63767612
5170.81767797
5167.47311452
5164.78590733
5162.49941697
5161.0507061
5159.98291311
5303.34921421
5302.97981612
5302.55575187
5301.8093025
5300.94993206
5299.8335381
5298.52857077
5296.97237879
5295.1720016
5293.09608358
5290.7328031
5288.06194525
5285.06960116
5281.7424803
5278.07169911
5274.0523365
5269.6847857
5264.97526553
5259.93657617
5254.58849274
5248.95824912
5243.080814
5236.9963535
5230.75334761
5224.40744209
5218.01980381
5211.65285957
5205.37366716
5199.25057779
5193.35013659
5187.74025945
5182.47897786
5177.63472652
5173.23772337
5169.38110303
5166.01506714
5163.33743396
5161.10786601
5159.75919012
5158.81575397
5298.90270886
5298.88743999
5298.93999011
5298.98318867
5299.07522533
5299.18323019
5299.32645759
5299.49274739
5299.68607736
5299.90141211
5300.13800804
5300.39286338
5300.66397243
5300.94881334
5301.24506901
5301.55031477
5301.8621877
5302.17830514
5302.49636916
5302.81405456
5303.12929868
5303.4397613
5303.74315343
5304.03794402
5304.32192005
5304.59333023
5304.85035443
5305.09128418
5305.31450632
5305.51832505
5305.70143974
5305.86173979
5305.99897177
5306.10892248
5306.19538446
5306.24669234
5306.28040238
5306.26544639
5306.2563564
5306.19507274
5298.87934795
5298.84468967
5298.88058946
5298.9105902
5298.9920533
5299.09224704
5299.22846699
5299.38854057
5299.57542139
5299.78407676
5300.01343272
5300.2604957
5300.52318242
5300.79898599
5301.08558998
5301.38059878
5301.68167969
5301.98649788
5302.29281085
5302.59837327
5302.90123591
5303.19887323
5303.48940035
5303.77120175
5304.04223932
5304.30082643
5304.54525861
5304.77393652
5304.98536302
5305.17799425
5305.35067938
5305.50164268
5305.63096044
5305.73541987
5305.81981361
5305.87490171
5305.9207675
5305.92693524
5305.94804412
5305.8988943
5298.92853604
5298.87847126
5298.90406056
5298.91896098
5298.98676723
5299.07529121
5299.20151547
5299.35325027
5299.53242282
5299.73373393
5299.95558564
5300.19482249
5300.44917343
5300.71606971
5300.99314604
5301.27800237
5301.56831524
5301.86178695
5302.15621751
5302.44943022
5302.73940955
5303.02389986
5303.30112177
5303.56941748
5303.82699012
5304.07225716
5304.30368781
5304.51986632
5304.71951846
5304.90138919
5305.06466576
5305.20808078
5305.33220961
5305.43462999
5305.52049923
5305.5807221
5305.63436463
5305.64639981
5305.66780382
5305.60645517
5298.96344321
5298.90109693
5298.91163299
5298.9089571
5298.96010865
5299.03350459
5299.14590631
5299.28501215
5299.45188622
5299.64087789
5299.8498691
5300.07548458
5300.31524648
5300.56650345
5300.82683931
5301.09385559
5301.36525542
5301.63880246
5301.9123666
5302.18387504
5302.45138268
5302.71290362
5302.96676156
5303.21143646
5303.44539396
5303.66726991
5303.87579532
5304.06983454
5304.2484313
5304.41070412
5304.55625994
5304.68436316
5304.7961226
5304.88975425
5304.97086614
5305.03029019
5305.08725729
5305.10279962
5305.1288535
5305.05802664
5299.04963364
5298.97729518
5298.97441038
5298.95521235
5298.99002725
5299.04769444
5299.14527594
5299.27034563
5299.42338406
5299.59836321
5299.7926959
5300.00274461
5300.22580953
5300.45912664
5300.70021219
5300.94665488
5301.19617822
5301.44660249
5301.69587291
5301.94203019
5302.1832549
5302.41780536
5302.64417936
5302.8610355
5303.06712127
5303.26134497
5303.44275117
5303.61053868
5303.7641212
5303.90302648
5304.02730349
5304.1366935
5304.23275967
5304.31406053
5304.3864324
5304.44013339
5304.49445697
5304.50708857
5304.53159369
5304.45228688
5299.1493659
5299.06955668
5299.05526071
5299.02107199
5299.04021067
5299.08171989
5299.16323571
5299.27218366
5299.4087074
5299.56643676
5299.74241278
5299.93274749
5300.13454142
5300.34491828
5300.56133238
5300.78136438
5301.00276939
5301.22344044
5301.4414267
5301.65491932
5301.8622789
5302.06201611
5302.25286236
5302.43373987
5302.60372084
5302.76205563
5302.90816371
5303.04163748
5303.16230705
5303.27013097
5303.36559853
5303.44886378
5303.52187651
5303.58336425
5303.63938068
5303.67950825
5303.72348256
5303.72618503
5303.74371551
5303.65446314
5299.28405386
5299.19733373
5299.17319884
5299.12522736
5299.12954286
5299.15493233
5299.21980468
5299.31135508
5299.42956462
5299.56774665
5299.7226517
5299.89015794
5300.06718785
5300.25075472
5300.43825438
5300.627261
5300.81556774
5301.00115107
5301.18218476
5301.35703422
5301.52427547
5301.68269095
5301.83130122
5301.96934894
5302.09627665
5302.21173032
5302.31555449
5302.40778157
5302.48869424
5302.55869728
5302.61871706
5302.66927532
5302.71266856
5302.74770163
5302.78069432
5302.80059325
5302.82797931
5302.81557991
5302.82287501
5302.72434321
5299.43942578
5299.34649037
5299.31409591
5299.25342812
5299.24360386
5299.25270413
5299.3000602
5299.37256001
5299.47015563
5299.58587518
5299.71625211
5299.85695608
5300.00475782
5300.15657065
5300.30974102
5300.46184484
5300.61072577
5300.75446153
5300.89137675
5301.02004269
5301.13929056
5301.24821222
5301.34617313
5301.43280113
5301.50796804
5301.57177915
5301.62456418
5301.6668517
5301.69942057
5301.72314884
5301.73941105
5301.7490764
5301.75477617
5301.7553424
5301.75742526
5301.74934952
5301.75290248
5301.71891024
5301.711137
5301.60080228
5299.61955529
5299.52003679
5299.47985125
5299.40661664
5299.38264709
5299.37484002
5299.40352731
5299.45516932
5299.52975813
5299.62003664
5299.72236501
5299.83221766
5299.94622969
5300.06121922
5300.17449005
5300.2836266
5300.38653464
5300.48141034
5300.56675438
5300.64137468
5300.70439738
5300.75526789
5300.79375399
5300.81993277
5300.83417047
5300.83709999
5300.82960346
5300.81276897
5300.7879303
5300.75648611
5300.72029856
5300.68060846
5300.64042188
5300.59862772
5300.56235572
5300.51940784
5300.49323781
5300.4329368
5300.40743816
5300.28440275
5299.81828111
5299.71186024
5299.66409502
5299.57804645
5299.53949157
5299.5137345
5299.52218347
5299.55075748
5299.59953104
5299.66095078
5299.7312283
5299.80564752
5299.88071665
5299.95316027
5300.02024408
5300.07956753
5300.12911154
5300.16720965
5300.19256584
5300.20425987
5300.20175741
5300.18490985
5300.15395044
5300.10947686
5300.05242516
5299.9840352
5299.90582126
5299.81951018
5299.72706648
5299.63047754
5299.5321571
5299.43376954
5299.33876303
5299.24612909
5299.16361898
5299.07855711
5299.01645423
5298.92459018
5298.87795773
5298.74004248
5300.03430716
5299.92030582
5299.86460521
5299.76490985
5299.71077722
5299.66555262
5299.65178326
5299.65472439
5299.6745458
5299.70336789
5299.73725714
5299.77129811
5299.80186992
5299.82560007
5299.83971593
5299.8418363
5299.83002776
5299.80278047
5299.75903038
5299.69816681
5299.62004314
5299.52497454
5299.41372873
5299.28750198
5299.14788475
5298.99681387
5298.83652889
5298.6694893
5298.4983841
5298.32587977
5298.15503113
5297.98800935
5297.82880357
5297.6765854
5297.53989774
5297.40564003
5297.30178164
5297.17363824
5297.10312028
5296.94869464
5300.26379066
5300.14153484
5300.07736501
5299.96292581
5299.89189289
5299.82533828
5299.78701957
5299.76141463
5299.74879065
5299.74090294
5299.73366401
5299.72194098
5299.70197324
5299.67028223
5299.62405328
5299.56092644
5299.47906418
5299.37713267
5299.25432964
5299.11039536
5298.94562309
5298.76085605
5298.55747229
5298.33735317
5298.10283828
5297.85666327
5297.60189966
5297.34184886
5297.0800351
5296.81991255
5296.56528542
5296.31893234
5296.08549578
5295.86440944
5295.66516947
5295.47426957
5295.32250552
5295.15299865
5295.05545954
5294.88250223
5300.50402806
5300.37274044
5300.29934572
5300.16879993
5300.07924453
5299.98919529
5299.923693
5299.86632748
5299.81745579
5299.76842113
5299.71496144
5299.65170059
5299.57472103
5299.48042288
5299.36594129
5299.22893708