/*--------------------------------*- C++ -*----------------------------------*\
| =========                 |                                                 |
| \\      /  F ield         | foam-extend: Open Source CFD                    |
|  \\    /   O peration     | Version:     4.1                                |
|   \\  /    A nd           | Web:         http://www.foam-extend.org         |
|    \\/     M anipulation  |                                                 |
\*---------------------------------------------------------------------------*/
FoamFile
{
    version     2.0;
    format      ascii;
    class       volScalarField;
    location    "0.6";
    object      alpha1;
}
// * * * * * * * * * * * * * * * * * * * * * * * * * * * * * * * * * * * * * //

dimensions      [0 0 0 0 0 0 0];

internalField   nonuniform List<scalar> 
96000
(
0.999998707658
0.999998681228
0.99999887064
0.999999032647
0.999999000529
0.999998781303
0.999998561191
0.999998387036
0.999998264233
0.999998179621
0.999998099872
0.999998002563
0.999997964614
0.999997958413
0.999997951058
0.999997942757
0.99999793168
0.999997917932
0.99999789812
0.999997868254
0.999997847491
0.999997835072
0.999997819759
0.999997809593
0.999997803883
0.999997799771
0.999997796986
0.999997791526
0.999997782197
0.99999777259
0.999997767973
0.999997771846
0.999997774838
0.999997795633
0.999997905145
0.99999797065
0.999997999365
0.999997989383
0.999997986373
0.999998433343
0.999998691153
0.999998762505
0.999999028796
0.999999172512
0.999999090366
0.999998867768
0.999998638437
0.999998466692
0.999998351459
0.99999826558
0.999998190404
0.999998128035
0.999998083569
0.999998058025
0.999998046033
0.999998038069
0.999998026385
0.999998008536
0.999997987308
0.999997965514
0.999997943588
0.999997925374
0.999997913806
0.999997907039
0.99999790413
0.999997902655
0.999997898678
0.999997893099
0.99999788268
0.999997867771
0.999997855304
0.999997859927
0.999997895238
0.999997958955
0.99999802666
0.999998073838
0.999998077945
0.999998030051
0.9999980295
0.999998494045
0.999998908326
0.999999066369
0.999999370488
0.999999521781
0.999999447535
0.999999243666
0.999999032966
0.999998877226
0.999998775571
0.99999870125
0.99999863792
0.999998586243
0.999998551945
0.9999985345
0.999998526593
0.999998519537
0.999998508322
0.999998492593
0.999998474458
0.999998456454
0.999998440858
0.999998429736
0.999998423703
0.999998421872
0.999998422797
0.999998424696
0.999998425169
0.999998420528
0.999998409364
0.999998393276
0.999998379139
0.999998377864
0.999998403322
0.999998454487
0.99999850848
0.999998531912
0.999998497564
0.999998386605
0.999998261789
0.999998661191
0.999999119844
0.999999274937
0.999999588504
0.999999760744
0.999999709205
0.999999524722
0.99999932883
0.999999184315
0.999999093596
0.999999031219
0.999998979441
0.999998938043
0.999998912296
0.999998901602
0.9999988987
0.999998895501
0.999998887394
0.999998874466
0.999998859492
0.999998845498
0.999998834702
0.999998828523
0.999998826947
0.999998828982
0.999998833219
0.999998837151
0.999998837909
0.99999883257
0.999998818753
0.999998797301
0.999998775608
0.999998766513
0.999998785629
0.999998831486
0.999998875789
0.999998880016
0.999998806613
0.999998640974
0.999998464478
0.999998763261
0.999999179466
0.999999289614
0.999999610304
0.999999803548
0.99999977617
0.999999598057
0.999999410665
0.99999927375
0.999999190544
0.999999137774
0.999999094956
0.999999060668
0.999999040831
0.999999036166
0.999999039094
0.999999040548
0.999999035877
0.999999025798
0.999999013544
0.999999002385
0.999998994986
0.999998992527
0.999998994291
0.999998999494
0.999999006302
0.999999012386
0.99999901441
0.999999008341
0.999998991717
0.999998964626
0.999998934616
0.999998918355
0.999998933369
0.999998978833
0.999999023152
0.999999000558
0.999998875762
0.999998667219
0.999998477789
0.999998730967
0.999999062932
0.999999188147
0.999999524987
0.999999732341
0.999999712612
0.999999536388
0.99999934705
0.999999209232
0.999999127558
0.999999078535
0.99999904019
0.999999008616
0.999998989667
0.999998988167
0.999998996216
0.999999000279
0.999998997113
0.999998987629
0.999998974192
0.999998959561
0.999998947574
0.999998943029
0.99999894439
0.999998949341
0.999998957369
0.999998964857
0.999998969366
0.999998961602
0.999998936478
0.999998895567
0.999998847802
0.99999881359
0.999998816782
0.999998861579
0.999998908034
0.999998887205
0.999998757041
0.999998527567
0.999998295961
0.999998615626
0.999998935625
0.999999091423
0.999999443949
0.999999658144
0.999999639069
0.999999461657
0.999999268094
0.999999127505
0.999999045631
0.999998997583
0.99999895964
0.999998925789
0.999998914039
0.999998914472
0.999998918369
0.999998924038
0.999998920606
0.999998907504
0.999998893692
0.999998886583
0.999998885949
0.999998885531
0.999998885165
0.999998885448
0.999998883398
0.999998879118
0.999998868779
0.999998856783
0.999998828428
0.999998778937
0.999998718797
0.999998666732
0.999998654085
0.999998702999
0.999998763577
0.999998749026
0.999998623638
0.999998390068
0.999998134086
0.999998518981
0.999998909738
0.999999047361
0.999999409547
0.999999627105
0.999999607888
0.999999428999
0.999999232747
0.99999909012
0.999999013836
0.999998967224
0.999998930139
0.999998916255
0.999998913362
0.999998913129
0.999998913154
0.999998912151
0.999998908822
0.999998903276
0.999998895016
0.999998890854
0.999998890381
0.9999988898
0.999998889489
0.999998889708
0.999998887837
0.999998880492
0.999998863576
0.999998837375
0.999998797038
0.999998740384
0.99999867979
0.999998639911
0.999998625772
0.999998641696
0.999998677179
0.999998665893
0.999998545887
0.99999831275
0.999998090419
0.999998467241
0.999998893817
0.999999037872
0.999999402753
0.999999623553
0.999999605069
0.999999423628
0.999999227329
0.99999908559
0.999999010917
0.999998967773
0.999998933264
0.999998920658
0.999998921555
0.999998925158
0.999998927651
0.999998927692
0.999998924856
0.999998920507
0.999998914546
0.999998907043
0.999998903613
0.999998900641
0.9999989007
0.999998902272
0.999998903442
0.999998900585
0.999998886738
0.999998857123
0.999998812627
0.99999875242
0.999998685868
0.999998640382
0.999998626931
0.999998640295
0.999998657614
0.999998645431
0.99999852488
0.999998293509
0.999998092728
0.999998455249
0.999998871107
0.999999022717
0.999999387861
0.999999611956
0.999999595803
0.999999412695
0.999999217627
0.999999077624
0.999999002807
0.999998963688
0.999998935287
0.999998916485
0.999998916108
0.99999892412
0.999998934106
0.999998940215
0.99999893799
0.99999892615
0.999998920828
0.999998916902
0.999998912172
0.999998909685
0.999998910406
0.999998912286
0.999998912632
0.999998910131
0.999998901299
0.999998874115
0.999998831109
0.999998768659
0.999998692678
0.999998635914
0.999998619097
0.999998636365
0.999998666101
0.999998648803
0.999998523143
0.999998294612
0.999998096713
0.999998458926
0.999998852119
0.999998981233
0.999999347441
0.999999575474
0.99999956269
0.999999379299
0.999999184949
0.999999046212
0.999998973223
0.9999989379
0.999998915876
0.999998900982
0.999998898568
0.999998910257
0.999998926202
0.999998936331
0.999998936287
0.999998926895
0.999998916028
0.999998909559
0.999998905105
0.999998904247
0.999998906202
0.999998909622
0.999998910527
0.999998906906
0.999998896187
0.999998875054
0.999998834142
0.99999876857
0.999998688883
0.999998626006
0.999998602281
0.999998624846
0.999998664983
0.999998640424
0.999998512538
0.999998287268
0.999998052756
0.999998458667
0.999998798413
0.99999891492
0.999999286305
0.999999519186
0.999999510598
0.999999328545
0.999999134698
0.999998996272
0.999998925779
0.999998895639
0.999998875718
0.999998864588
0.999998867964
0.999998883832
0.999998901675
0.999998913044
0.999998914463
0.999998908231
0.99999889769
0.999998888651
0.999998884604
0.999998885949
0.999998890137
0.99999889459
0.999998896318
0.999998892171
0.99999887869
0.999998856562
0.999998813695
0.999998747232
0.999998668847
0.999998602979
0.999998580484
0.999998610958
0.999998640784
0.999998615569
0.999998491513
0.999998266734
0.999998043105
0.999998450757
0.999998717272
0.999998839423
0.99999921756
0.999999456126
0.999999452876
0.999999273176
0.999999080416
0.999998943101
0.999998875252
0.999998847877
0.999998831967
0.999998825651
0.999998833012
0.999998851311
0.999998871292
0.999998883282
0.999998885129
0.999998880679
0.999998873339
0.99999886609
0.999998863319
0.999998867023
0.999998873117
0.999998877111
0.999998878943
0.999998874178
0.999998859424
0.999998833316
0.999998786277
0.999998715275
0.99999863659
0.999998575916
0.999998550302
0.99999858205
0.999998612629
0.999998591665
0.999998472563
0.999998251464
0.999998062019
0.99999844768
0.999998641458
0.999998766023
0.999999150564
0.999999395306
0.999999398357
0.999999221296
0.999999030381
0.999998894661
0.99999882947
0.999998805873
0.999998794514
0.999998792408
0.999998802648
0.999998822829
0.999998844164
0.999998858541
0.999998862829
0.999998859757
0.999998853186
0.99999884791
0.99999884812
0.999998852477
0.999998857373
0.999998862058
0.999998864258
0.999998858586
0.999998844556
0.999998817189
0.999998765497
0.999998690765
0.999998614648
0.999998556679
0.999998514825
0.999998542763
0.999998599751
0.99999858362
0.999998467778
0.999998251921
0.999998088253
0.999998456637
0.999998576754
0.999998697438
0.999999087215
0.999999338237
0.999999348088
0.999999173482
0.999998984706
0.999998850583
0.999998788526
0.99999876924
0.999998761378
0.999998761971
0.999998775074
0.999998796842
0.999998819928
0.999998838263
0.999998845164
0.999998841223
0.999998834241
0.999998830597
0.999998834212
0.99999884
0.999998845192
0.999998852184
0.999998855415
0.999998850053
0.999998836505
0.999998806017
0.999998752134
0.999998684091
0.999998605469
0.999998523429
0.999998519882
0.999998542574
0.9999986042
0.999998592508
0.99999848153
0.999998272235
0.999998121583
0.999998482272
0.999998516629
0.999998631224
0.999999025127
0.999999282214
0.999999298913
0.999999126543
0.999998939753
0.999998807147
0.999998747963
0.999998731557
0.999998726593
0.999998729595
0.999998744802
0.99999876973
0.999998795246
0.999998813911
0.999998821393
0.999998818613
0.999998814696
0.999998813943
0.999998817947
0.999998826461
0.999998836519
0.999998843421
0.999998845143
0.999998843894
0.999998829336
0.999998794874
0.999998746251
0.999998681672
0.999998586767
0.999998524034
0.999998530891
0.999998563737
0.999998622259
0.999998614948
0.999998512172
0.999998311039
0.999998163618
0.999998524694
0.999998454891
0.999998564415
0.999998961971
0.999999224802
0.999999248172
0.999999077996
0.999998892869
0.999998761674
0.999998704289
0.999998690211
0.999998687683
0.999998693035
0.999998710477
0.999998738599
0.999998765944
0.999998783026
0.9999987921
0.999998793452
0.999998792685
0.999998794537
0.999998799002
0.999998810766
0.999998824669
0.999998829337
0.999998829987
0.999998830462
0.99999881428
0.99999878167
0.999998737826
0.99999866985
0.99999857058
0.99999853452
0.999998548533
0.999998588258
0.999998643351
0.99999864684
0.999998554895
0.999998364861
0.999998218545
0.999998579328
0.99999839078
0.999998496346
0.999998897473
0.999999165859
0.999999195845
0.99999902799
0.999998844308
0.999998713924
0.999998657959
0.999998646793
0.99999864644
0.999998654321
0.999998674008
0.999998702925
0.999998733235
0.999998753585
0.9999987628
0.999998766354
0.999998768868
0.999998773702
0.999998781401
0.999998793941
0.999998806711
0.999998814625
0.999998818434
0.999998807528
0.999998786205
0.999998762914
0.999998733378
0.999998652878
0.999998547943
0.999998551529
0.999998569793
0.99999861439
0.999998665116
0.999998687445
0.999998605203
0.999998428235
0.999998294109
0.999998640867
0.999998328
0.999998428107
0.999998832714
0.999999106685
0.9999991435
0.999998978166
0.999998796125
0.99999866577
0.999998611692
0.999998603839
0.999998605254
0.999998615853
0.999998638359
0.999998668949
0.999998701178
0.999998726407
0.999998737834
0.999998743803
0.999998749098
0.99999875524
0.999998766952
0.999998782375
0.999998794943
0.999998807781
0.99999881299
0.999998799157
0.999998774336
0.999998747432
0.999998727615
0.999998634052
0.999998564436
0.999998570798
0.999998592494
0.999998642299
0.999998705587
0.999998735647
0.99999865955
0.999998494512
0.999998381136
0.999998704991
0.999998267009
0.999998359954
0.999998768377
0.999999048384
0.999999092587
0.999998930013
0.999998750166
0.999998619055
0.999998567434
0.999998564339
0.999998568319
0.999998579845
0.999998605495
0.999998640833
0.99999867382
0.999998700289
0.999998718656
0.999998728315
0.999998736135
0.999998746195
0.999998762372
0.999998780223
0.9999987944
0.999998804949
0.999998810711
0.999998811896
0.999998791658
0.999998760117
0.999998721489
0.999998639368
0.999998583852
0.999998590833
0.999998617139
0.99999867664
0.999998754352
0.999998781846
0.999998719559
0.999998564332
0.999998433434
0.999998777888
0.999998202899
0.999998291652
0.999998705213
0.999998991899
0.999999044025
0.999998884182
0.999998706807
0.999998575807
0.999998526619
0.999998526418
0.999998534511
0.999998548606
0.999998577026
0.999998614999
0.99999865114
0.999998681573
0.99999870444
0.999998716974
0.999998727743
0.999998744995
0.999998767039
0.999998784749
0.99999879961
0.999998810428
0.999998818664
0.999998821157
0.999998806344
0.999998778539
0.99999873206
0.999998664269
0.999998604432
0.9999986117
0.999998643568
0.999998713361
0.999998796576
0.999998825046
0.999998786216
0.99999864646
0.999998490197
0.999998868153
0.999998135013
0.999998225214
0.99999864416
0.999998937718
0.999998997775
0.999998840335
0.999998665066
0.999998535577
0.999998488372
0.999998491123
0.99999850072
0.999998519172
0.999998551113
0.999998589989
0.999998632722
0.999998668754
0.999998691459
0.999998708153
0.999998725866
0.999998749176
0.999998772151
0.999998791712
0.999998810706
0.999998828538
0.999998837563
0.999998828143
0.999998810983
0.999998794201
0.999998752023
0.999998670651
0.999998626602
0.999998634508
0.999998669633
0.999998746579
0.999998838765
0.999998888783
0.999998866485
0.999998743574
0.999998631891
0.999998968908
0.999998070228
0.999998161644
0.999998585299
0.999998885171
0.999998952795
0.999998797552
0.999998624127
0.999998495753
0.99999845038
0.999998456609
0.999998467149
0.999998488494
0.999998523009
0.999998566835
0.99999861481
0.99999865268
0.999998679235
0.999998702458
0.999998727507
0.999998752731
0.999998774287
0.999998798841
0.999998830811
0.999998854497
0.999998854915
0.999998837231
0.999998820128
0.999998806412
0.999998770772
0.999998674719
0.999998649829
0.999998656753
0.99999869416
0.999998776033
0.999998901742
0.999998982786
0.99999895653
0.999998836068
0.999998769682
0.999999049483
0.999998016739
0.999998100488
0.999998527854
0.999998833839
0.999998908419
0.999998755017
0.999998583155
0.9999984555
0.999998411143
0.999998418837
0.999998433022
0.999998456045
0.999998492899
0.999998542695
0.999998592434
0.999998632875
0.999998666369
0.999998697348
0.999998725427
0.999998751093
0.99999877604
0.999998812008
0.99999885222
0.999998869322
0.999998858187
0.99999883942
0.999998826362
0.999998809754
0.999998787508
0.999998735452
0.999998671491
0.999998673662
0.999998717727
0.999998792556
0.999998914495
0.999999056083
0.999999031777
0.999998914822
0.99999892692
0.999999103769
0.99999796495
0.999998040875
0.999998471999
0.99999878373
0.999998864597
0.999998712493
0.99999854192
0.999998414479
0.999998369776
0.99999837946
0.999998398132
0.999998421485
0.999998460465
0.999998514435
0.999998566865
0.999998612932
0.999998652972
0.999998687863
0.99999871778
0.999998749252
0.99999878579
0.999998834103
0.999998862103
0.999998864565
0.999998859171
0.999998853625
0.999998839214
0.999998802483
0.999998767057
0.99999878247
0.99999867185
0.999998667015
0.999998726226
0.999998794311
0.999998900293
0.999999045638
0.999999070313
0.999999002854
0.999999056831
0.999999187338
0.999997910409
0.999997982451
0.999998418045
0.999998734817
0.999998821698
0.999998670092
0.999998500576
0.99999837318
0.999998328009
0.999998340114
0.999998359813
0.999998385627
0.99999842906
0.999998483281
0.999998538921
0.999998593353
0.999998638275
0.999998674519
0.999998713423
0.999998755756
0.999998809724
0.99999885244
0.999998866129
0.999998865476
0.999998867611
0.999998874639
0.999998848865
0.999998781483
0.999998727788
0.999998729118
0.999998650131
0.999998648418
0.999998699305
0.999998788461
0.999998960045
0.999999012671
0.999999067834
0.999999073057
0.999999100825
0.999999275577
0.999997855964
0.999997926036
0.999998365047
0.999998686454
0.9999987794
0.999998626976
0.999998458028
0.999998331247
0.999998287783
0.999998299743
0.999998318666
0.999998347737
0.999998394889
0.999998450354
0.99999851132
0.999998571792
0.999998623011
0.999998665906
0.99999871559
0.99999876994
0.999998828896
0.999998858073
0.999998866516
0.999998875648
0.99999889243
0.999998879376
0.999998820827
0.999998773284
0.999998757845
0.999998659586
0.999998635435
0.999998648157
0.999998671438
0.999998791357
0.999999002077
0.999999048395
0.999999081607
0.999999074596
0.999999059152
0.999999289359
0.999997807061
0.999997870269
0.999998311215
0.999998636827
0.999998734288
0.999998580371
0.999998410919
0.999998284941
0.99999824533
0.999998254119
0.999998274182
0.999998306075
0.999998353709
0.999998413222
0.999998482021
0.999998547938
0.999998605802
0.999998660213
0.999998716122
0.999998782245
0.999998840055
0.999998863045
0.999998877122
0.999998913871
0.999998912403
0.999998844389
0.999998807576
0.999998813896
0.999998957969
0.999998661875
0.999998610971
0.999998630465
0.999998650244
0.999998747824
0.999998892859
0.999999064644
0.999999117442
0.999999048836
0.999999038098
0.999999287962
0.999997756507
0.999997811378
0.999998253879
0.999998582646
0.999998680196
0.999998525011
0.999998353814
0.999998227803
0.999998188047
0.999998195506
0.99999821854
0.99999825248
0.999998300949
0.999998366232
0.999998441069
0.999998510864
0.99999857495
0.999998642912
0.999998705197
0.999998766564
0.999998830005
0.999998887561
0.999998922044
0.999998920361
0.999998876674
0.999998851138
0.999998844568
0.999998891118
0.999998678048
0.999998652593
0.999998583257
0.999998496682
0.999998474193
0.999998563766
0.999998740296
0.99999896409
0.999999062305
0.999999064015
0.999999085745
0.999999290097
0.999997684698
0.999997748209
0.999998190743
0.999998520663
0.999998613377
0.9999984563
0.999998281541
0.999998153818
0.999998109289
0.99999811496
0.999998141514
0.999998178833
0.999998230984
0.999998300782
0.999998375666
0.999998450754
0.999998527299
0.999998601526
0.999998666022
0.999998729547
0.999998813432
0.999998897124
0.999998919399
0.999998869078
0.999998869112
0.999998971591
0.999998763133
0.999998630823
0.999998599823
0.999998628512
0.999998404893
0.99999824463
0.999998262632
0.999998341818
0.99999859739
0.999998842113
0.999998967482
0.999999057451
0.999999115533
0.999999299099
0.999997600479
0.999997681939
0.999998122521
0.999998451348
0.999998536996
0.999998376324
0.999998194786
0.999998060985
0.999998015925
0.999998020218
0.999998047588
0.99999808754
0.99999814202
0.999998213843
0.999998293361
0.999998379786
0.999998469333
0.999998544527
0.999998619616
0.999998717789
0.999998809745
0.999998848989
0.999998854289
0.999998887659
0.999998942831
0.999998821011
0.999998676869
0.999998588254
0.999998565887
0.999998361604
0.999998203201
0.999998166086
0.999998169738
0.99999818955
0.999998474135
0.999998726543
0.999998903431
0.999999016576
0.999999094069
0.999999296912
0.999997565927
0.999997614601
0.99999805488
0.999998381616
0.999998461206
0.99999829574
0.999998107669
0.999997964523
0.999997918289
0.999997924713
0.999997952393
0.99999799393
0.999998052047
0.999998129934
0.999998223924
0.999998321866
0.999998414298
0.999998510114
0.99999861809
0.999998717639
0.999998784828
0.999998830905
0.999998845535
0.999998876044
0.999998897869
0.999998757901
0.999998641812
0.999998543122
0.999998386334
0.999998194281
0.999998122444
0.999998092184
0.999998071355
0.999998211981
0.999998406118
0.999998587287
0.999998850018
0.99999899446
0.999999074207
0.999999288319
0.999997538068
0.999997572044
0.999997991568
0.999998320988
0.999998398706
0.999998227886
0.99999803806
0.999997889471
0.999997831066
0.999997845198
0.999997877475
0.999997920974
0.999997987694
0.999998075777
0.999998178591
0.999998283918
0.999998391495
0.999998517329
0.999998635035
0.999998709333
0.999998783869
0.999998855838
0.999998871364
0.999998878183
0.999998877121
0.999998769916
0.999998608575
0.999998430788
0.999998222151
0.999998122223
0.999998056125
0.999997998138
0.999997987941
0.999998230753
0.999998336515
0.999998526248
0.99999882884
0.999998995313
0.999999072888
0.999999291354
0.999997506829
0.99999753003
0.999997942252
0.999998269904
0.999998346766
0.999998173146
0.999997984579
0.999997838357
0.999997776299
0.999997789272
0.999997821645
0.99999786788
0.999997942548
0.999998039789
0.999998147411
0.999998264798
0.999998388029
0.999998511947
0.999998638883
0.999998751232
0.999998826719
0.999998869612
0.999998910677
0.999998977605
0.99999891722
0.999998728802
0.99999858382
0.999998375829
0.999998161097
0.999998063258
0.999997975954
0.999997906076
0.999997967453
0.999998120389
0.999998269598
0.999998588201
0.99999884838
0.999999001619
0.999999091099
0.99999930951
0.999997469911
0.99999747989
0.999997887508
0.999998206188
0.999998269073
0.999998101403
0.999997916698
0.999997780084
0.999997716886
0.999997714943
0.999997749987
0.999997804171
0.999997881422
0.999997984323
0.999998102945
0.999998232742
0.99999836743
0.999998492791
0.99999861976
0.999998755505
0.999998860573
0.999998896242
0.999998932202
0.999999026208
0.99999892963
0.999998691464
0.999998556709
0.999998405564
0.999998117434
0.999997981885
0.999997893096
0.999997820463
0.999997879832
0.999998014296
0.9999983042
0.999998649733
0.999998865748
0.999999015625
0.99999910636
0.99999931182
0.999997413548
0.999997412918
0.99999779433
0.999998091133
0.999998119281
0.999997959736
0.999997778802
0.999997645372
0.999997580506
0.999997577259
0.999997612176
0.999997671571
0.999997755582
0.999997865348
0.999997996453
0.999998138232
0.99999828292
0.999998423738
0.999998557218
0.999998683574
0.999998793603
0.999998875136
0.999998928023
0.999998930735
0.999998853133
0.999998684642
0.999998502794
0.999998355223
0.99999819581
0.999997985455
0.999997815109
0.999997769543
0.999997787286
0.999998073627
0.99999839719
0.999998654898
0.999998862172
0.999999010133
0.999999066069
0.999999277522
0.999997340311
0.999997304045
0.999997647419
0.999997899341
0.999997885491
0.999997719613
0.999997538282
0.999997406812
0.999997344811
0.999997343234
0.999997379406
0.999997443503
0.999997535871
0.999997657155
0.999997799367
0.99999795154
0.999998110369
0.999998267322
0.999998411584
0.999998542213
0.999998665347
0.999998775278
0.999998840331
0.999998806321
0.99999868339
0.999998557665
0.999998450924
0.999998296221
0.99999809647
0.999997915942
0.999997779995
0.999997756673
0.999997889193
0.999998124601
0.999998386563
0.999998621565
0.999998824954
0.999998941317
0.999998990528
0.999999217765
0.999997218738
0.999997143012
0.999997429612
0.999997630572
0.999997573013
0.999997387849
0.999997197896
0.999997064119
0.999997001042
0.999996997755
0.999997041056
0.999997112379
0.999997211379
0.999997343617
0.999997500671
0.999997670305
0.999997846051
0.999998012398
0.999998165964
0.999998320533
0.999998472856
0.999998588519
0.999998637616
0.999998629542
0.999998556816
0.999998412529
0.999998252691
0.999998095883
0.999997922659
0.99999775557
0.999997692346
0.999997689937
0.999997840547
0.999998062094
0.99999829611
0.99999853476
0.999998710144
0.999998826141
0.999998881989
0.999999119865
0.999997162553
0.999997091569
0.999997217658
0.999997374655
0.999997275735
0.999997077065
0.999996883504
0.999996740251
0.999996651518
0.999996660863
0.999996731385
0.999996844481
0.999996981742
0.999997127406
0.999997288944
0.999997473222
0.999997639449
0.999997766695
0.999997949975
0.999998160837
0.999998368256
0.9999984844
0.999998520195
0.999998540652
0.99999849636
0.99999833994
0.999998150632
0.999997992096
0.99999787357
0.999997733501
0.999997689615
0.999997686901
0.999997771779
0.999997986273
0.999998214408
0.999998430705
0.999998603097
0.9999987101
0.999998750563
0.999999043069
0.999997744819
0.999997695679
0.999997809785
0.999997860791
0.999997766656
0.999997612562
0.99999747224
0.999997381314
0.999997343591
0.999997348573
0.999997391359
0.999997458536
0.999997549663
0.999997669586
0.999997807098
0.999997953167
0.999998111279
0.999998268964
0.999998414792
0.999998554098
0.999998695446
0.999998803518
0.999998832945
0.999998811271
0.99999876969
0.999998683065
0.999998552359
0.999998412334
0.999998296818
0.999998222311
0.999998140982
0.999998170458
0.99999828018
0.999998423385
0.999998596957
0.999998754677
0.999998895189
0.999998972542
0.999998999329
0.999999333212
0.999998702661
0.999998708556
0.999998940748
0.999999060497
0.999998977253
0.999998755578
0.999998529015
0.999998352247
0.999998230371
0.99999814334
0.999998064613
0.999997989447
0.999997947391
0.999997937175
0.999997929304
0.999997919601
0.999997907303
0.999997891964
0.999997874366
0.999997851383
0.999997828235
0.999997816359
0.999997807346
0.999997800036
0.999997795573
0.999997792288
0.999997789226
0.999997783621
0.999997775332
0.999997768715
0.999997767255
0.999997769088
0.999997777146
0.999997841719
0.999997928254
0.999997993549
0.999998025215
0.999998024458
0.999998059506
0.999998537098
0.999998721879
0.999998908773
0.99999917881
0.999999282009
0.999999174948
0.999998955846
0.999998739702
0.99999857988
0.999998471469
0.999998388534
0.999998317383
0.999998259685
0.999998219545
0.999998196483
0.999998185676
0.999998177419
0.999998165349
0.999998148252
0.999998128044
0.999998107671
0.999998088293
0.999998072113
0.999998062288
0.999998057472
0.999998055737
0.999998055299
0.999998053886
0.999998048935
0.999998040055
0.999998029529
0.999998023718
0.999998037893
0.999998086982
0.999998156986
0.999998227591
0.999998274604
0.99999828218
0.999998241567
0.999998190507
0.999998607156
0.999998990864
0.99999922015
0.999999510761
0.999999628623
0.999999541294
0.999999347557
0.999999157005
0.999999019048
0.999998927405
0.999998858611
0.999998800618
0.999998755147
0.999998726389
0.999998712655
0.999998706718
0.999998700926
0.999998691
0.999998676831
0.999998660712
0.999998645238
0.999998632518
0.999998624024
0.999998620189
0.999998620173
0.999998622641
0.999998625551
0.999998626397
0.999998623008
0.99999861416
0.999998601986
0.999998593291
0.999998599604
0.9999986321
0.999998688011
0.999998743277
0.999998763199
0.999998720635
0.999998612104
0.999998479101
0.999998761493
0.999999167867
0.999999390244
0.9999996953
0.999999835595
0.999999773279
0.999999601701
0.999999428612
0.999999304698
0.999999225679
0.99999916878
0.99999912181
0.999999086016
0.999999065182
0.999999057417
0.999999055722
0.999999053078
0.999999045844
0.999999034453
0.999999021514
0.99999900979
0.999999001267
0.999998997002
0.999998996851
0.999998999858
0.999999004615
0.999999008742
0.999999009747
0.99999900509
0.999998993082
0.999998975352
0.999998960035
0.999998958086
0.999998983339
0.999999031872
0.999999074813
0.999999071936
0.999998987021
0.999998819847
0.999998635166
0.999998850208
0.999999182452
0.999999382851
0.999999702969
0.999999864658
0.999999821279
0.999999660544
0.999999495709
0.999999379051
0.999999307431
0.99999925807
0.999999218205
0.999999188679
0.99999917317
0.999999169715
0.999999171411
0.999999171565
0.999999166673
0.999999157461
0.999999146778
0.999999137538
0.999999131635
0.999999129786
0.999999131487
0.999999135939
0.999999141315
0.999999145158
0.999999145008
0.999999137862
0.999999121467
0.999999096993
0.999999072871
0.999999062431
0.999999080614
0.999999124482
0.999999162448
0.999999144004
0.99999902969
0.999998825733
0.999998610732
0.999998815511
0.999999074205
0.999999283893
0.999999623736
0.999999801437
0.999999767584
0.999999610341
0.999999446797
0.999999332001
0.999999263337
0.999999217443
0.999999181243
0.999999155383
0.999999143101
0.999999142188
0.999999145925
0.999999147591
0.999999143956
0.999999135866
0.999999126187
0.999999117835
0.999999112733
0.999999111436
0.999999113267
0.999999117265
0.999999121421
0.999999123264
0.9999991201
0.999999108244
0.999999085023
0.99999905149
0.999999016495
0.999998996492
0.999999006791
0.999999047483
0.999999084442
0.999999062796
0.999998938469
0.999998716186
0.999998479517
0.999998712899
0.999998966749
0.999999198504
0.999999554791
0.999999742016
0.99999971168
0.999999554267
0.999999389991
0.999999275403
0.999999207823
0.999999163677
0.99999912938
0.999999105249
0.999999093525
0.999999094405
0.999999100892
0.999999103548
0.999999100402
0.999999092577
0.999999082431
0.999999072253
0.999999064549
0.999999061929
0.999999063474
0.999999067391
0.999999071818
0.999999073259
0.999999069146
0.999999053954
0.999999025392
0.999998985001
0.999998941347
0.999998913328
0.999998916477
0.999998953403
0.999998989629
0.999998969105
0.999998843551
0.999998614398
0.999998367024
0.99999862554
0.999998910938
0.999999161062
0.999999526258
0.999999718137
0.999999688728
0.999999530451
0.999999365707
0.999999251405
0.999999183554
0.999999140756
0.999999108005
0.999999081593
0.999999070252
0.999999073882
0.999999083385
0.999999088922
0.999999086398
0.999999077346
0.999999066035
0.999999055324
0.999999048048
0.999999045837
0.999999047449
0.999999051018
0.999999054584
0.999999055512
0.999999050804
0.999999035762
0.999999005235
0.999998960092
0.999998908472
0.999998869888
0.999998865641
0.999998901127
0.999998938728
0.999998918072
0.99999879289
0.999998562766
0.999998307093
0.999998584389
0.999998901309
0.99999914892
0.999999517751
0.999999711829
0.999999682294
0.999999522913
0.99999935777
0.999999243968
0.999999177527
0.999999136439
0.999999106059
0.999999082168
0.999999072313
0.999999078453
0.999999091137
0.99999909846
0.999999096636
0.999999087622
0.999999075903
0.999999065939
0.999999059617
0.999999058863
0.99999906061
0.999999063671
0.99999906535
0.999999064733
0.999999060083
0.999999044579
0.999999012207
0.999998964072
0.999998908483
0.999998864254
0.999998853333
0.999998884209
0.999998922176
0.999998900037
0.999998774975