/*--------------------------------*- C++ -*----------------------------------*\
| =========                 |                                                 |
| \\      /  F ield         | foam-extend: Open Source CFD                    |
|  \\    /   O peration     | Version:     4.1                                |
|   \\  /    A nd           | Web:         http://www.foam-extend.org         |
|    \\/     M anipulation  |                                                 |
\*---------------------------------------------------------------------------*/
FoamFile
{
    version     2.0;
    format      ascii;
    class       volScalarField;
    location    "0.6";
    object      epsilon;
}
// * * * * * * * * * * * * * * * * * * * * * * * * * * * * * * * * * * * * * //

dimensions      [0 2 -3 0 0 0 0];

internalField   nonuniform List<scalar> 
96000
(
0.0162424968458
0.0166495667152
0.017244559023
0.0175629491846
0.0177031838605
0.017761009243
0.0177844654018
0.0177945099658
0.0177996124608
0.0178031471824
0.0178063271939
0.0178096174506
0.0178131702022
0.0178170461782
0.01782125719
0.017825797588
0.0178306555985
0.0178358108022
0.0178412401906
0.0178468890339
0.0178526936017
0.0178587358214
0.0178648933351
0.0178710970138
0.0178773383432
0.0178835549318
0.0178897084528
0.0178957296775
0.0179015385595
0.0179070066927
0.0179118338469
0.0179153390877
0.0179157429074
0.0179087695922
0.0178838047769
0.0178169220706
0.0176556038645
0.0173025783381
0.0166679832786
0.0162441792166
0.0166494458589
0.0230382582806
0.0279417088809
0.0308298246561
0.0322999975059
0.03300361905
0.0333226479186
0.0334625634812
0.0335239367615
0.0335534075756
0.0335706072414
0.0335836403706
0.033595570529
0.0336076019611
0.033620095302
0.0336331735335
0.0336468422646
0.0336610794623
0.0336758437194
0.0336910446328
0.0337066047377
0.0337225366475
0.03373873415
0.0337557394425
0.0337740335682
0.0337937078764
0.0338137441116
0.0338336186825
0.033852882339
0.0338690256125
0.0338781455393
0.0338696204507
0.0338193542977
0.0336750462912
0.0333253944373
0.0325577312718
0.0309830629057
0.0279742957047
0.0230218632599
0.0166453562799
0.0172420913238
0.0279329580432
0.0366575940586
0.042019050583
0.0449831113349
0.0465275951876
0.0472867657105
0.0476418435798
0.0478021115833
0.0478747516324
0.0479101926365
0.0479309382243
0.0479463241137
0.0479600968592
0.0479737187705
0.0479877412483
0.0480024076939
0.048017784213
0.0480338075598
0.0480504518272
0.0480675040637
0.0480852028681
0.0481032606312
0.0481214650182
0.0481397264899
0.0481578627365
0.0481755356672
0.0481918183937
0.0482047215854
0.0482094561126
0.0481945216231
0.0481337432694
0.0479700790967
0.0475873973045
0.046763857811
0.0451128322646
0.0420004041921
0.0364878556503
0.0277513057726
0.0172166686408
0.0175590421653
0.0308129547734
0.0420088670586
0.0491690856769
0.0533439151873
0.0556451601699
0.0568421555256
0.0574321050424
0.0577096355252
0.0578371852165
0.0578968517579
0.057927682203
0.0579469954809
0.057962175058
0.0579762099548
0.0579902864183
0.0580047789194
0.0580198141168
0.0580354630968
0.0580516145482
0.0580683367702
0.0580854211744
0.0581028851891
0.0581205888678
0.0581383478559
0.0581557629373
0.0581721853824
0.0581859872061
0.0581932859715
0.0581850572598
0.0581407879867
0.058016054114
0.0577199420351
0.057079839252
0.0557891041656
0.0533485773083
0.048995393339
0.0416771723273
0.0305214816367
0.0175203752043
0.0176985982831
0.032277811239
0.0449644377992
0.0533346417583
0.0583961223404
0.0612940371808
0.0628605485329
0.0636615849776
0.0640505775617
0.0642326676759
0.0643169340514
0.0643576953684
0.0643801523953
0.0643954702757
0.0644083512054
0.0644207286847
0.0644333705505
0.0644465736961
0.064460434135
0.0644749522085
0.0644901222001
0.06450589131
0.0645221333831
0.064538691142
0.0645553092956
0.064571483185
0.0645859999765
0.0645964445609
0.0645969597462
0.0645741866357
0.0644987370125
0.0643099400735
0.0638888318355
0.0630199917894
0.0613395814872
0.0582849206788
0.0530361775948
0.0445215301218
0.0319215480614
0.0176534798859
0.0177560640442
0.0329787905525
0.0465032491988
0.0556293806829
0.061287118065
0.0646120895944
0.066458158871
0.0674272883747
0.0679094410712
0.0681393200412
0.0682462575098
0.0682968204769
0.0683228953815
0.0683390143708
0.06835147061
0.0683629157348
0.0683744348698
0.0683864666065
0.068399174444
0.0684125994816
0.0684267537833
0.0684415853442
0.0684569773319
0.0684727598513
0.068488620338
0.068503909429
0.0685171731998
0.0685250596136
0.0685198642907
0.0684844685376
0.0683826648307
0.0681414150827
0.0676207440626
0.0665754304278
0.0646060501617
0.0611173589679
0.0552711275155
0.0460151397006
0.0326001660622
0.0177090675649
0.017779326415
0.0332966775936
0.047259281555
0.0568224092493
0.0628491545134
0.066453507369
0.0684913318222
0.0695808069081
0.0701324208174
0.0703994369833
0.0705248628387
0.0705840174793
0.0706137913166
0.0706313401871
0.0706442410932
0.0706557431175
0.0706672011965
0.0706791755935
0.0706918867665
0.0707054074372
0.0707197610479
0.0707348954286
0.0707506960601
0.0707669755834
0.0707833672801
0.0707990910942
0.0708123923491
0.0708192645905
0.0708121125711
0.0707711320499
0.0706539605097
0.0703763016376
0.0697845382155
0.0686149362336
0.066447815906
0.0626753906802
0.05645707522
0.0467699041949
0.0329188977369
0.0177323369793
0.0177893504765
0.0334364056123
0.0476131144916
0.0574105462589
0.0636479879067
0.0674202551816
0.0695783740537
0.0707463356597
0.0713450070715
0.0716382759529
0.0717775360097
0.0718437552674
0.0718771847423
0.0718968051089
0.0719111135308
0.0719237987921
0.0719364183842
0.0719496242508
0.0719636781463
0.0719786729151
0.0719946368198
0.0720115137101
0.0720291834772
0.0720474374591
0.0720658696078
0.0720837669679
0.072101832587
0.0721154418533
0.0721131707856
0.0720727393495
0.0719473513984
0.0716472282264
0.0710094978378
0.0697599711988
0.0674682559104
0.0635222305177
0.0570856083662
0.0471589571428
0.033077837782
0.0177433564124
0.017794504317
0.0334980719683
0.0477732166353
0.0576876683895
0.0640363615547
0.0679016869653
0.0701292360309
0.0713442564557
0.0719722789127
0.0722827411069
0.0724317253034
0.0725035175269
0.072540415201
0.0725625471112
0.0725790056717
0.0725937716604
0.0726085396714
0.0726240239193
0.0726405127329
0.0726581104253
0.0726768436893
0.0726966482009
0.0727173977997
0.0727389024485
0.0727636065203
0.0727913661925
0.0728188009159
0.0728403423763
0.0728443403898
0.0728070981815
0.0726791697742
0.0723671544384
0.0717025151664
0.0704053071162
0.0680394885195
0.0639924436614
0.0574319017839
0.0473738537344
0.0331669768766
0.0177497200789
0.0177981491486
0.0335280966875
0.0478463440246
0.0578157258678
0.0642189227359
0.0681320343398
0.070396740403
0.071638042836
0.0722832783833
0.0726045238003
0.0727602479339
0.0728365163408
0.0728767623896
0.072901774248
0.0729209960362
0.0729385860981
0.0729563239437
0.0729749621506
0.0729948037366
0.0730159574509
0.0730384440203
0.0730622076791
0.0730886570279
0.0731206980484
0.0731566331055
0.073194651269
0.0732318073616
0.0732622946011
0.0732740594528
0.0732422699005
0.0731160395149
0.0727996584104
0.072121188232
0.0707974289832
0.0683892052186
0.0642842392483
0.0576523239651
0.0475180377352
0.0332316526688
0.0177546401243
0.0178014906412
0.0335459978564
0.0478826113021
0.0578764491649
0.0643043438632
0.0682402134474
0.0705234841186
0.0717786887756
0.0724336988343
0.0727617126925
0.072922286518
0.0730023519913
0.0730459154805
0.0730741124867
0.0730965787245
0.0731175731023
0.0731389244009
0.073161407085
0.0731853305393
0.0732108069901
0.0732378940304
0.0732703961752
0.073308906545
0.0733522927695
0.0733991414009
0.0734476806421
0.0734948954695
0.0735348388338
0.0735552502957
0.0735304078751
0.0734085560466
0.0730925825508
0.0724082131058
0.0710704087967
0.0686376448695
0.0644979904273
0.0578213696816
0.0476364816844
0.0332885921541
0.017759099362
0.0178049989434
0.0335598494147
0.0479044079194
0.0579087165785
0.0643467386349
0.0682925698953
0.0705845613204
0.0718469401692
0.0725076095848
0.0728401625698
0.0730045674886
0.0730881255239
0.0731350990636
0.0731667903544
0.0731929318925
0.0732178366545
0.0732433608534
0.0732702907927
0.0732989460298
0.0733303396412
0.0733685977723
0.0734135067013
0.0734636787338
0.0735182292318
0.0735760103745
0.0736352703855
0.0736928986718
0.0737428503786
0.0737724476924
0.0737556287649
0.0736399353194
0.0733272892273
0.0726415888417
0.0712965281637
0.0688485894893
0.0646856911087
0.0579764555199
0.0477510099119
0.0333460762252
0.0177635455433
0.0178088326632
0.0335727139538
0.0479210161552
0.0579297678251
0.0643712047706
0.0683208748751
0.0706167437495
0.0718829317682
0.0725471967981
0.0728832017846
0.0730509992818
0.0731380089483
0.0731885838507
0.0732240968816
0.0732543259692
0.0732836127561
0.0733138291293
0.0733457836727
0.0733813615671
0.0734251981523
0.0734756965686
0.073532590559
0.0735945638212
0.0736606176506
0.0737296033021
0.0737997895364
0.0738680717611
0.0739283053193
0.0739676107871
0.0739596099166
0.0738512503279
0.07354358297
0.0728590406877
0.0715101714299
0.0690514581307
0.0648702893356
0.058133120901
0.0478697981929
0.0334056782471
0.0177684386506
0.0178130558178
0.0335857809353
0.047936210127
0.057946974162
0.0643888831328
0.0683396306511
0.0706371570489
0.0719056173974
0.0725725678904
0.0729116039835
0.073082710524
0.0731733060391
0.0732277533517
0.0732674484802
0.073302189229
0.0733363337369
0.0733717881831
0.0734118782664
0.0734603748966
0.0735166977542
0.0735795654705
0.0736481601756
0.0737219464236
0.0737996612567
0.073880085665
0.0739614941873
0.0740407754819
0.0741117071067
0.0741612596397
0.0741627345351
0.0740625271516
0.0737608690406
0.0730788104539
0.0717277400271
0.0692601236537
0.0650623897623
0.0582983614927
0.0479948131279
0.0334700756795
0.0177738962398
0.0178176973915
0.0335994831205
0.0479514061666
0.0579633337579
0.0644044833218
0.0683551375217
0.0706533880133
0.0719235090004
0.0725928366539
0.0729348423672
0.0731093746326
0.073203796468
0.0732624430264
0.0733067117448
0.0733464093145
0.0733859354256
0.0734303923279
0.0734836779224
0.0735449664921
0.0736132938854
0.0736885232657
0.0737692659381
0.0738547733137
0.0739442612275
0.0740363759273
0.0741293439104
0.0742200208666
0.0743021280365
0.0743624374053
0.0743739897145
0.0742825520109
0.0739875303696
0.0733087102681
0.0719560491903
0.0694800050956
0.0652659302001
0.0584735419416
0.0481271727763
0.0335400697137
0.0177798444254
0.0178227510287
0.0336139339574
0.047967356331
0.0579798822424
0.0644199614054
0.0683700727239
0.0706687156655
0.0719403312823
0.0726120269411
0.0729571264304
0.0731353106072
0.0732338632209
0.0732970755044
0.0733463380657
0.0733914967141
0.0734406180549
0.0734985138211
0.0735643499226
0.0736380264078
0.0737189115459
0.0738061545908
0.0738991488966
0.0739967795562
0.0740981786463
0.0742022561219
0.0743071938771
0.0744097210777
0.0745034755336
0.0745750827911
0.0745972051239
0.0745150540219
0.0742270796188
0.0735517870679
0.0721977762564
0.0697131412903
0.0654814689001
0.0586586729331
0.0482682347669
0.0336153893706
0.0177862315749
0.0178281972746
0.0336291744537
0.0479841774649
0.0579971677864
0.0644361101462
0.0683855499233
0.0706845286054
0.0719576816696
0.0726318805859
0.0729802912039
0.0731624118158
0.0732654369282
0.0733336080975
0.0733883429395
0.0734434421189
0.073506083636
0.0735762489621
0.0736548058578
0.0737408087577
0.0738341633127
0.0739337793323
0.0740389827609
0.0741489892265
0.0742627430749
0.0743791427292
0.0744964097232
0.0746112579133
0.0747171505997
0.0748005196528
0.0748336504586
0.0747611325271
0.0744805342987
0.0738088214304
0.0724531932488
0.0699590082324
0.0657084639966
0.058854390934
0.0484171569694
0.0336957640388
0.0177929850267
0.01783402492
0.0336451676661
0.048001967209
0.0580153139594
0.0644532475934
0.0684020326557
0.0707014165808
0.0719762467164
0.072653152333
0.0730051366251
0.0731915078117
0.0732993687969
0.0733729469061
0.0734377231872
0.0735062888453
0.0735810212349
0.0736640400038
0.0737548169043
0.0738534842421
0.0739591049653
0.0740712866415
0.0741889814889
0.0743115424646
0.0744380362851
0.0745671992776
0.0746972574496
0.0748248447597
0.0749433136668
0.0750387734921
0.0750832649388
0.0750206671363
0.0747474798795
0.0740791944999
0.0727212992223
0.0702166713345
0.0659462016749
0.0590593566484
0.0485734453619
0.0337806012537
0.0178000863879
0.0178402060531
0.0336618908447
0.0480207784439
0.0580342826015
0.0644714743327
0.0684196929721
0.0707196141576
0.0719963106662
0.0726761635801
0.0730320111889
0.0732229688124
0.0733360817852
0.0734195194658
0.0734976116229
0.073578110881
0.073665621752
0.0737608008589
0.0738641801117
0.0739751696622
0.0740934325892
0.0742181441732
0.0743486920907
0.0744841556567
0.0746237431544
0.0747661028611
0.0749093630192
0.075050064871
0.0751813821372
0.0752893217481
0.0753453211327
0.075292622222
0.0750267615856
0.0743614843512
0.0730005751652
0.0704846358728
0.0661930941328
0.0592720743388
0.0487356206842
0.0338694393808
0.0178078933866
0.017846685665
0.0336792893745
0.0480403972298
0.0580541162328
0.0644908043301
0.0684385957624
0.0707392286513
0.0720180113356
0.072701070283
0.0730610804331
0.0732569919476
0.0733794471471
0.0734759121039
0.073565815474
0.073658878912
0.0737583982339
0.0738660699708
0.0739817563895
0.0741052991919
0.0742362327499
0.0743738588082
0.0745174885102
0.0746662962005
0.0748193347236
0.0749752292937
0.0751320026455
0.075286066837
0.0754305028201
0.0755508929526
0.0756184564474
0.0755755759911
0.0753167024331
0.0746539193724
0.0732894883676
0.070761237743
0.0664473515492
0.0594907413428
0.0489021472364
0.0339613779953
0.0178189685581
0.0178534115442
0.0336972233923
0.0480606763333
0.0580748497437
0.0645112495889
0.0684587665357
0.0707602904313
0.0720413754997
0.0727278954816
0.0730923814885
0.073296616267
0.0734317133862
0.0735399948284
0.0736420783771
0.0737469756598
0.0738588627863
0.0739786812268
0.0741068291286
0.0742430343294
0.0743868367776
0.0745376802688
0.0746947435905
0.0748572082864
0.0750240054059
0.0751936771896
0.0753641414095
0.07553168673
0.0756891864233
0.0758221033723
0.0759010755934
0.0758678395308
0.0756158304823
0.0749552076791
0.073586555916
0.0710450841793
0.0667077516909
0.059714113418
0.0490716279671
0.0340552729465
0.0178340478155
0.0178604092774
0.0337165828719
0.04808188316
0.058096252697
0.0645327332128
0.0684801285157
0.0707827259738
0.0720663341553
0.0727565792727
0.0731277777074
0.073344123888
0.0734911735765
0.0736110451091
0.0737249584858
0.0738419133625
0.0739656886459
0.0740978836206
0.0742385177821
0.0743875159712
0.0745445242036
0.0747088107554
0.0748796053264
0.0750559633299
0.0752367031239
0.0754202746529
0.0756044446484
0.0757854215677
0.0759560040899
0.0761013510622
0.0761918688957
0.0761684190857
0.0759231930726
0.0752646464562
0.0738914351782
0.0713359280521
0.0669738675776
0.059941540182
0.049243435792
0.034150012624
0.0178531226259
0.0178676387661
0.0337386447406
0.0481036969231
0.0581185537366
0.0645549196443
0.0685025454115
0.0708064038748
0.0720927555768
0.0727878355516
0.0731705653778
0.0733983509382
0.0735565694257
0.0736881368788
0.0738135480809
0.0739423147864
0.0740782139927
0.0742225945277
0.0743759035783
0.0745379505236
0.0747083140407
0.0748862959696
0.075071017835
0.0752613762346
0.0754561029825
0.0756535138318
0.0758513689926
0.0760458120957
0.0762295910661
0.0763878019592
0.0764902525809
0.0764770463117
0.0762390862812
0.075582729245
0.0742045782458
0.0716342734409
0.0672462957849
0.0601733549608
0.0494171996126
0.0342448267982
0.0178751995259
0.0178749852877
0.033762592239
0.0481258735188
0.0581414489963
0.0645777247595
0.0685258117437
0.0708311001326
0.0721204335677
0.0728247086762
0.073218782315
0.0734577354907
0.0736270009015
0.0737698441699
0.0739068418117
0.0740472080789
0.0741951174626
0.0743519322777
0.0745179762062
0.0746932103634
0.0748771471632
0.075068938723
0.0752676220785
0.0754719481394
0.0756805773571
0.075891804808
0.0761034121413
0.0763116902237
0.0765093639817
0.0766811663307
0.0767965584201
0.0767944599424
0.0765643279998
0.0759104314624
0.0745272740235
0.0719413847305
0.0675259456019
0.0604102605209
0.0495928075132
0.0343435748303
0.0178994292133
0.0178824098884
0.0337879972315
0.0481484589222
0.0581645997761
0.0646007529831
0.0685495613909
0.0708564045602
0.0721517396039
0.0728666929479
0.0732711787583
0.0735208976135
0.073701158773
0.0738549177761
0.0740032904532
0.0741553610503
0.074315215111
0.074484441928
0.0746633993168
0.0748519329094
0.0750494916063
0.0752550838445
0.075467602711
0.075685772251
0.0759082129921
0.0761334327015
0.0763593569159
0.0765823392649
0.0767949964049
0.076981748184
0.077111168453
0.0771211710196
0.0768997231838
0.0762486347793
0.074860382558
0.0722584299748
0.067814482878
0.0606542350775
0.0497721779492
0.0344564180416
0.0179255562251
0.0178898711693
0.0338145427496
0.0481710064073
0.0581877399126
0.0646235294119
0.0685730574532
0.0708820106297
0.0721867492011
0.0729113303359
0.0733259363283
0.0735860061219
0.0737769418039
0.0739415804277
0.0741010589364
0.0742647230272
0.0744366255657
0.074618310748
0.0748101732809
0.07501197011
0.0752230395885
0.075442227597
0.0756683832856
0.0759002726303
0.076136707651
0.0763764743386
0.0766177240068
0.0768567089088
0.0770857556995
0.0772886903249
0.0774334554869
0.077456651673
0.0772445550468
0.0765968575354
0.0752037221452
0.0725855426262
0.0681125584132
0.060906954434
0.0499592309629
0.0345842553401
0.017953846508
0.017897285813
0.0338418600235
0.0481930999619
0.0582101394073
0.0646449435805
0.0685946459707
0.0709085196684
0.0722220511119
0.0729556157305
0.0733798869793
0.0736498865842
0.0738511390153
0.0740264451063
0.0741969021815
0.0743719983389
0.0745558400112
0.074749929879
0.0749546234572
0.0751695127683
0.075393765379
0.0756262575392
0.0758657781063
0.0761113891189
0.0763623199485
0.0766176166666
0.0768753772283
0.0771316647076
0.0773783789061
0.0775988034309
0.0777599370992
0.0777972267339
0.0775954223013
0.0769517279303
0.075554122391
0.0729198422927
0.0684178354584
0.0611666375479
0.0501595641497
0.0347252678642
0.0179842535926
0.0179045799296
0.0338690563474
0.048214911177
0.0582299345518
0.0646624132764
0.0686123374078
0.0709316607785
0.072252209874
0.072993771318
0.0734270027204
0.0737063764956
0.0739175060715
0.0741031261879
0.0742843591092
0.0744706751653
0.074666242328
0.0748725307751
0.0750896638143
0.0753172008434
0.075554197073
0.0757994596501
0.0760521393285
0.0763117217947
0.0765777973939
0.0768495057991
0.0771248322833
0.077399415681
0.0776647685495
0.0779035041023
0.0780818549395
0.0781340945367
0.077943293744
0.0773045126654
0.0759035537038
0.0732545025724
0.0687244276307
0.0614281482258
0.0503735142642
0.0348740494682
0.0180160887004
0.0179116712058
0.0338950007341
0.0482347925134
0.0582430341785
0.0646700385841
0.0686190984823
0.0709406046549
0.0722659647866
0.0730138156294
0.073454827657
0.0737426795073
0.0739629782961
0.0741583784547
0.0743499226906
0.0745470742825
0.0747539052697
0.0749717654465
0.0752007627684
0.0754401820381
0.0756890782803
0.0759465263893
0.0762120650712
0.0764857218675
0.0767673290814
0.0770559150323
0.0773491571518
0.0776424276837
0.0779267059591
0.078184048429
0.0783799797868
0.0784476642482
0.078268941663
0.0776367843508
0.0762350687851
0.0735746611173
0.0690209405077
0.0616929607408
0.0505940706488
0.0350273475984
0.0180488585471
0.0179183985269
0.0339179418303
0.0482475075227
0.058241540438
0.0646553823664
0.0685973196729
0.0709144691654
0.0722401160807
0.0729913083055
0.0734378146816
0.0737326373949
0.0739610079639
0.0741652568222
0.0743663252267
0.0745734658491
0.0747906734325
0.0750192022324
0.0752588506872
0.0755089067015
0.0757685324478
0.0760371197543
0.0763148846557
0.0766022073569
0.0768988655635
0.0772037844693
0.0775144149631
0.0778256656196
0.0781281573989
0.0784034977111
0.0786167122756
0.0787002552546
0.0785353349458
0.0779145871643
0.0765186010765
0.073857179635
0.0692943243721
0.0619473592816
0.0508112379026
0.0351810600567
0.0180821125326
0.0179244211367
0.0339328745913
0.0482401471981
0.0582041983574
0.0645885017294
0.0685080380646
0.0708099028331
0.0721275767465
0.0728762600847
0.0733244453899
0.0736236322981
0.0738581633325
0.0740697204837
0.0742788164511
0.0744944990619
0.0747205331907
0.0749578614297
0.0752062544011
0.0754649151333
0.0757332191851
0.0760112273755
0.0762996058176
0.0765988055923
0.0769086733285
0.0772279648418
0.0775537333872
0.0778807053321
0.0781992024289
0.0784906086121
0.0787210737452
0.0788236513235
0.0786780925088
0.0780754710157
0.0766965199018
0.0740504279566
0.0694996587637
0.0621552823564
0.0510038351606
0.0353257089183
0.0181147422743
0.0179290469444
0.0339295265149
0.0481859108936
0.0580856179253
0.0644077775023
0.0682770013423
0.0705424778876
0.0718375982477
0.0725741967127
0.0730178799177
0.0733173392404
0.0735550294367
0.0737713743679
0.0739862061412
0.0742080586793
0.0744402517834
0.0746836288681
0.074937767987
0.0752018745589
0.0754758565469
0.0757602810836
0.0760560211245
0.0763636862093
0.0766830671188
0.0770126154407
0.0773493679386
0.0776877739273
0.0780180542584
0.078323874786
0.0785717339797
0.0786939735554
0.0785717012069
0.0779980500223
0.07665523501
0.074053936461
0.0695506419838
0.0622535337135
0.0511320512926
0.0354448529955
0.0181451208087
0.0179303842111
0.0338827132609
0.0480260381069
0.0577938041133
0.0639918459505
0.0677619862757
0.0699558177553
0.0712047209161
0.071914163721
0.0723438456762
0.0726372409324
0.0728733818552
0.0730905383408
0.0733073412194
0.0735313778857
0.0737656326078
0.074010667663
0.0742658958724
0.0745307888005
0.0748055707518
0.0750912540335
0.0753888891089
0.07569910978
0.0760215563789
0.0763547445736
0.0766955144864
0.077038247502
0.0773748261646
0.077691035806
0.0779523438557
0.078094846115
0.0780012802859
0.077470781426
0.0761918586428
0.0736802836304
0.0692912290643
0.0621210170573
0.0511175312644
0.0355017886841
0.0181694506426
0.0179240577024
0.0337395052208
0.0476435267425
0.0571543187034
0.0631244425226
0.066717727204
0.0687863589799
0.0699546055244
0.0706157082457
0.0710182829622
0.0712971079876
0.0715255227398
0.0717383085463
0.0719519159735
0.0721728802733
0.0724037723851
0.0726446626088
0.0728950170771
0.0731544535431
0.0734235075384
0.073703499036
0.0739955155999
0.0743001056544
0.0746170830448
0.0749448914065
0.075280275768
0.0756179531224
0.0759534794288
0.0762716920572
0.0765416910971
0.0767006880377
0.076642648089
0.0761773780377
0.0750036372056
0.0726472032041
0.0684675962159
0.0615528118441
0.0508195020882
0.0354312221237
0.0181809285538
0.0178991806242
0.0333869960235
0.0468150460608
0.0558586147981
0.0614392910355
0.0647413253916
0.0666107900805
0.0676528906722
0.0682387865674
0.0685981075237
0.0688517392682
0.0690643009632
0.0692654108058
0.0694684804545
0.0696790822526
0.0698988927779
0.0701277311712
0.0703649564696
0.0706103617735
0.0708647953621
0.0711294159702
0.0714053583601
0.0716932748711
0.071993168175
0.0723035549225
0.072621304752
0.0729443724329
0.073268526495
0.073579695666
0.073847667965
0.0740232396248
0.074007989545
0.0736293421106
0.0726092919156
0.0704945550338
0.0666604680363
0.060191917341
0.0499763467902
0.0350948705502
0.0181631099236
0.0178315892266
0.0326123412857
0.0451551494115
0.0534095427253
0.0583744565418
0.061239877827
0.0628223612861
0.0636885194284
0.0641715494061
0.0644715954856
0.0646895211669
0.0648779468758
0.065058996586
0.0652435633371
0.0654356814331
0.0656360726247
0.0658442688367
0.0660595112496
0.066281793957
0.0665120222562
0.0667510944298
0.0669997387464
0.067258971236
0.0675295038201
0.0678098468688
0.0680985610121
0.0683962919101
0.0686973230691
0.0689875204449
0.0692466656644
0.0694307545404
0.069463191699
0.0691945840817
0.0683804353245
0.0666078146977
0.0632861780033
0.0575213511159
0.048184191028
0.0342654222669
0.018086502967
0.0176682853986
0.0310251839082
0.0420290512892
0.0490424288845
0.0531082284396
0.0553703067986
0.0565766837109
0.0572209301047
0.0575774459873
0.0578041922119
0.0579758761268
0.0581294128533
0.0582800834402
0.0584357306268
0.0585981769276
0.0587680190544
0.0589443260304
0.059126238072
0.0593135704304
0.059507110455
0.0597077864571
0.0599157326001
0.060131368382
0.0603574093232
0.0605970291831
0.0608509485712
0.0611123938127
0.0613766000434
0.061635240586
0.0618714142994
0.0620570761323
0.062132828133
0.0619855381875
0.0614189528626
0.0600840527167
0.0574593613799
0.0527166635211
0.0447591828305
0.0325213824212
0.0178899360494
0.0173120491289
0.0280035670873
0.0365060807512
0.0417117457549
0.0445746083792
0.0460870356498
0.0468554107914
0.0472544375898
0.0474755816759
0.047622917744
0.0477401896022
0.0478489664214
0.0479587799069
0.0480732239444
0.0481933868255
0.0483194124747
0.0484506988717
0.0485860740578
0.0487248113165
0.0488674303283
0.0490148160023
0.0491668042501
0.0493288751891
0.0495084002606
0.0497039767611
0.0499090770785
0.0501197831934
0.050333293038
0.0505434038866
0.0507422174186
0.050910478885
0.0510140508593
0.050979920617
0.0506742257562
0.0498431160926
0.0480822015568
0.044708297001
0.0387585927106
0.0292436365577
0.0174777481273
0.0166736327547
0.0230389610739
0.0277588510369
0.0305356621072
0.0319427765854
0.0326280251563
0.0329505094347
0.0331111186912
0.0331994212097
0.0332605824547
0.0333118550559
0.0333629709518
0.0334162198041
0.0334728107422
0.0335330314546
0.0335971117689
0.0336654535936
0.0337374800175
0.0338116230135
0.0338942262096
0.0339891400623
0.0340946590594
0.0342083960381
0.0343310709177
0.0344647090831
0.0346041377436
0.0347463945479
0.0348898943573
0.035032343734
0.0351698434733
0.035294489007
0.035392062656
0.0354298769717
0.0353456570023
0.035006590521
0.0341883827338
0.0324706462005
0.0292259663792
0.023854174077
0.0167695807942
0.0162448376144
0.0166463318615
0.017216750878
0.0175204374934
0.0176535674872
0.017708968947
0.0177317668958
0.0177420214133
0.0177472733718
0.0177509569565
0.0177543354858
0.0177578570613
0.017761626751
0.0177657129133
0.0177705596425
0.0177796014952
0.0177906313666
0.0178038373497
0.0178197061978
0.0178382628455
0.0178592179415
0.0178821353946
0.0179066871773
0.0179327575086
0.0179606361719
0.0179897632318
0.0180194995379
0.0180496282633
0.0180796717933
0.0181091127372
0.0181371061496
0.0181622338879
0.0181811067549
0.0181873634411
0.0181653864587
0.0180860017742
0.0178879940579
0.0174738786731
0.0167589355334
0.01628683845
0.0169054034906
0.0207711000861
0.0234498605539
0.0248940583553
0.0256038260405
0.0259331687198
0.0260788087995
0.0261430360831
0.0261729010053
0.026189738444
0.0262019433933
0.0262130869539
0.0262247432975
0.0262372711529
0.0262508466019
0.0262653602324
0.0262808927151
0.0262973490884
0.0263145527259
0.0263323587914
0.0263507359597
0.0263698309757
0.0263892948214
0.0264088379668
0.0264284319973
0.026448034535
0.0264675190675
0.0264865880536
0.0265049210038
0.0265218631413
0.0265356591538
0.026542072213
0.0265304257145
0.0264765726311
0.0263270449972
0.0259731493202
0.0252077660044
0.0236723363671
0.0208727296292
0.016903979886
0.0207600046234
0.0234734343812
0.0267798743504
0.0286945445128
0.0296697896253
0.0301331040857
0.0303415850578
0.0304320974397
0.0304712674305
0.0304895366254
0.030499814212
0.0305073706431
0.03051419895
0.0305210611688
0.0305281936885
0.0305356841251
0.0305435309382
0.030551721779
0.0305602345391
0.0305690227488
0.0305780506868
0.0305873568266
0.0305968673012
0.0306066969235
0.0306167610121
0.0306270090724
0.0306372785328
0.0306473608531
0.0306567924174
0.0306645092783
0.0306679108247
0.0306606041406
0.0306274195326
0.0305345539521
0.0303100798392
0.0298125129436
0.0287823210586
0.0268019069474
0.0234440548295
0.0206591050017
0.0234291486351
0.0267736543749
0.0309812069886
0.0335726511514
0.0349818823901
0.0356960546183
0.0360375885701
0.0361928532985
0.0362608350856
0.0362902904526
0.0363037234987
0.0363108960208
0.0363158345533
0.0363201175805
0.0363243450317
0.0363287325988
0.036333351186
0.0363382167725
0.0363433212629
0.0363486543436
0.0363541498138
0.0363597986903
0.0363655950089
0.036371445001
0.0363773599209
0.036383260326
0.0363890164161
0.0363943488864
0.0363984313196
0.0363992510748
0.0363919945348
0.0363652462404
0.0362937127385
0.0361245767025
0.0357541729163
0.0349930355488
0.0335219059458
0.0308711919031
0.026642153031
0.0232430025653
0.024867349564
0.0286834669831
0.0335674329155
0.0367018158241
0.0384877192636
0.039437568945
0.0399140194361
0.040140151614
0.0402423036734
0.0402865925553
0.0403054141236
0.0403136029296
0.040317615942
0.0403201154316
0.0403221642166
0.0403241700142
0.0403262863578
0.0403285691624
0.0403310366641
0.0403337002508
0.0403365437014
0.0403395547664
0.0403427280226
0.0403460292541
0.0403494106102
0.0403527712132
0.0403558603825
0.0403581157812
0.0403582168488
0.0403528733753
0.0403344405933
0.0402859637934
0.0401718968679
0.0399218280574
0.0394057299638
0.0383993359179
0.0365478536349
0.0333621493813
0.0284803778256
0.0246246521979
0.0255740354184
0.02965540101
0.0349726334983
0.0384833289557
0.0405495647749
0.0416868059811
0.0422773723079
0.0425670997554
0.0427017342751
0.0427610422477
0.0427858509642
0.0427956411822
0.0427992276697
0.0428003825336
0.0428006662603
0.0428007020266
0.0428007391627
0.0428008790247
0.0428011670816
0.0428016331121
0.0428022702019
0.0428030842178
0.0428040757454
0.0428052167941
0.0428064519014
0.0428076478106
0.0428084755437
0.042808129103
0.0428046610829
0.0427934978273
0.0427643567901
0.0426953365128
0.0425423427326
0.042221415956
0.0415841139556
0.0403856647704
0.0382550517945
0.0347035305542
0.0294074772116
0.0253001561455
0.0259023727767
0.0301168300574
0.0356840759926
0.0394299270915
0.0416833298928
0.0429531766922
0.0436288485062
0.0439683828772
0.0441296746675
0.044201926541
0.0442322389816
0.0442437702488
0.0442472986192
0.0442475644211
0.0442465794025
0.044245168933
0.0442436729338
0.0442422355987
0.044240926569
0.0442397885563
0.0442388261356
0.0442380543802
0.0442374805222
0.0442370787113
0.0442367836596
0.0442364254065
0.0442355787294
0.0442332032796
0.0442267841712
0.0442108005913
0.0441729874649
0.0440874955667
0.0439037890423