/*--------------------------------*- C++ -*----------------------------------*\
| =========                 |                                                 |
| \\      /  F ield         | foam-extend: Open Source CFD                    |
|  \\    /   O peration     | Version:     4.1                                |
|   \\  /    A nd           | Web:         http://www.foam-extend.org         |
|    \\/     M anipulation  |                                                 |
\*---------------------------------------------------------------------------*/
FoamFile
{
    version     2.0;
    format      ascii;
    class       volScalarField;
    location    "0.6";
    object      k;
}
// * * * * * * * * * * * * * * * * * * * * * * * * * * * * * * * * * * * * * //

dimensions      [0 2 -2 0 0 0 0];

internalField   nonuniform List<scalar> 
96000
(
0.00625925228947
0.0063659041001
0.00651890416794
0.00660032809727
0.00663621771508
0.00665111769466
0.00665720442635
0.00665983297167
0.00666117655609
0.00666210828396
0.00666294370855
0.00666380513244
0.00666473277465
0.0066657425174
0.00666683751528
0.006668016218
0.00666927566393
0.00667061053067
0.0066720147592
0.00667347401087
0.00667497257042
0.00667653138425
0.00667811886074
0.00667971758808
0.00668132533508
0.00668292638939
0.00668451055774
0.00668605997619
0.0066875539009
0.00668895861586
0.00669019567113
0.00669108765253
0.0066911727932
0.00668935028897
0.0066829015069
0.00666573111733
0.00662447714459
0.00653423584312
0.00637101760545
0.00625972417446
0.00636585926495
0.006042724302
0.00687875370047
0.00734936292249
0.00758435988855
0.00769618539495
0.00774692204897
0.00776925053629
0.00777908152993
0.00778380724876
0.00778655541454
0.00778862513585
0.00779050996547
0.00779240536906
0.00779437027282
0.00779642552146
0.00779857198778
0.00780080646029
0.00780312279558
0.00780550661967
0.00780794542579
0.0078104422911
0.00781306081186
0.00781589827518
0.00781892393159
0.00782214609454
0.00782541277964
0.00782864128728
0.00783174947551
0.007834345345
0.00783579186533
0.00783440156356
0.00782634499593
0.00780336627462
0.00774790183803
0.00762620300315
0.0073749160989
0.00688499165388
0.00604050822176
0.0063648262874
0.00651826538032
0.00687731907895
0.00825135455079
0.00904289440163
0.00946750766126
0.00968603191324
0.00979310039029
0.00984325192595
0.00986596448383
0.00987629345436
0.00988133693881
0.00988427911637
0.00988644787991
0.00988837998473
0.00989029358707
0.00989227375676
0.00989434241418
0.00989650889024
0.0098987648673
0.0099011057942
0.00990350322996
0.00990598825772
0.009908522464
0.00991107545579
0.00991363546501
0.00991617568515
0.00991864675313
0.00992091756155
0.0099227045538
0.00992332491481
0.00992122198888
0.00991265509762
0.00988954035695
0.00983561719959
0.00971965078462
0.00948632035718
0.00904057297072
0.00822618912281
0.00684780684575
0.00651185046833
0.00659932848493
0.00734668503391
0.00904143446103
0.0100475129221
0.0106133331279
0.0109201672431
0.0110788531567
0.0111570697564
0.0111939832115
0.0112110298651
0.0112190464528
0.0112232073236
0.0112258192057
0.0112278710343
0.0112297569564
0.0112316319082
0.0112335600349
0.0112355589295
0.0112376376892
0.0112397821078
0.0112420002606
0.0112442671298
0.0112465827516
0.0112489388924
0.0112513104569
0.0112536340071
0.0112558205569
0.0112576500785
0.0112586015434
0.011257469027
0.0112515280498
0.0112349061443
0.0111956277169
0.0111109473467
0.0109401324736
0.0106150019802
0.0100247446881
0.00899466929195
0.00730099842799
0.00658965662418
0.00663504587658
0.00758089823477
0.00946488002462
0.0106121036877
0.0112785920092
0.0116529517229
0.0118537755961
0.0119563537022
0.0120062971655
0.0120297900628
0.012040732527
0.0120460671936
0.0120490303092
0.012051063566
0.0120527772448
0.0120544233718
0.0120561022525
0.0120578525752
0.012059686678
0.0120616042172
0.0120636046071
0.0120656806593
0.0120678155437
0.0120699780914
0.0120721353807
0.0120742314567
0.0120761094998
0.0120774535607
0.0120775043429
0.0120745479167
0.0120648163259
0.0120405649513
0.0119867089591
0.0118757760026
0.011660629032
0.011266098945
0.0105741218307
0.00940417892766
0.00752602383509
0.00662381254941
0.00664983945745
0.00769233293735
0.00968264940798
0.0109181043935
0.0116520764653
0.0120744551051
0.012306871426
0.0124286432064
0.0124893552073
0.0125184382454
0.0125320597268
0.012538559761
0.0125419511424
0.0125440725637
0.0125457244242
0.0125472454734
0.0125487746476
0.0125503679887
0.0125520461047
0.0125538137815
0.0125556725289
0.0125576152331
0.0125596264078
0.0125616840131
0.0125637475388
0.0125657331724
0.0125674540458
0.0125684822027
0.0125678416666
0.0125634598376
0.0125507913815
0.0125205737638
0.012455315752
0.0123242934156
0.0120765694356
0.0116332899945
0.0108736334101
0.009617005829
0.00763465690628
0.00663814749797
0.00665587993982
0.00774290218694
0.00978930566626
0.0110762905331
0.0118523471893
0.0123062997768
0.0125604481674
0.0126959792924
0.0127647237589
0.012798152867
0.0128139631431
0.0128214912258
0.0128253295461
0.0128276252263
0.0128293315528
0.0128308591602
0.0128323797073
0.0128339640561
0.0128356397463
0.0128374154778
0.0128392940559
0.0128412682917
0.0128433230653
0.0128454342269
0.0128475546883
0.0128495854425
0.0128513062495
0.0128523861512
0.0128517472787
0.0128468208627
0.0128323343776
0.0127978783814
0.0127244375304
0.0125792578936
0.0123091930559
0.0118339061198
0.0110318205067
0.00972434184563
0.0076857768772
0.00664418060696
0.00665850633326
0.00776520740367
0.00983929974744
0.0111542846312
0.0119546597736
0.0124277864934
0.0126956884797
0.0128402615976
0.0129144852646
0.0129510072954
0.0129684671315
0.0129768476732
0.0129811322115
0.0129836831828
0.0129855638045
0.0129872377669
0.0129889013504
0.0129906366003
0.0129924760825
0.0129944309828
0.0129965046167
0.0129986892762
0.013000969214
0.0130033182038
0.0130056869293
0.0130082217221
0.013010778747
0.0130127198499
0.0130126287098
0.0130077335304
0.0129922599024
0.0129551683431
0.0128764148336
0.0127221017412
0.0124378875528
0.0119428946619
0.011115736299
0.00977981950803
0.0077113903988
0.00664704969452
0.00665986612098
0.00777508846065
0.00986200000143
0.0111911556278
0.0120045361146
0.0124884195467
0.012764350236
0.0129144025944
0.012992078395
0.0130306458675
0.0130492760541
0.0130583345127
0.0130630443286
0.0130659043644
0.0130680494127
0.0130699786029
0.0130719049626
0.0130739181628
0.0130760540111
0.0130783251323
0.0130807345837
0.0130832738127
0.0130859280873
0.0130888543308
0.0130922685761
0.0130960008301
0.0130996404204
0.013102495481
0.0131031189537
0.0130985735859
0.0130827787806
0.0130442808631
0.012962406022
0.0128026190072
0.0125099608121
0.0120034649641
0.0111620427619
0.0098105276324
0.00772578467107
0.0066487023937
0.00666082913545
0.00777990471968
0.00987240552987
0.0112082783646
0.0120280990294
0.01251757132
0.0127978497603
0.0129509981156
0.0130307215154
0.0130705856811
0.0130900345709
0.0130996408171
0.0131047617493
0.0131079752185
0.0131104586132
0.0131127327444
0.0131150210562
0.0131174179268
0.0131199609553
0.0131226633494
0.0131255281277
0.013128600306
0.0131322612476
0.013136548852
0.013141263527
0.0131461863844
0.0131509533351
0.0131548437921
0.0131563617405
0.0131524394618
0.0131368270678
0.0130978109314
0.0130143353198
0.0128515143967
0.0125540547608
0.0120410234678
0.0111914914213
0.0098310988989
0.0077361937567
0.00664997087109
0.00666170872599
0.00778276674282
0.00987757188969
0.011216442641
0.0120391980877
0.0125313579923
0.0128138331835
0.0129686385359
0.0130495379177
0.0130902240287
0.013110265987
0.0131203380699
0.0131258658711
0.0131294691632
0.0131323486752
0.0131350375418
0.0131377652503
0.0131406288499
0.0131436667209
0.0131468942567
0.0131505032292
0.013154883265
0.0131599424738
0.013165547307
0.013171530356
0.013177676281
0.0131836125007
0.0131886013982
0.0131911213974
0.0131880034425
0.0131728978525
0.0131339282836
0.0130497879664
0.0128854012525
0.0125852292111
0.0120683929718
0.011213945485
0.00984788501495
0.0077452868343
0.00665110908703
0.00666262878895
0.00778496817469
0.009880667793
0.0112208011793
0.012044750384
0.0125380924275
0.0128216095763
0.0129772795553
0.0130588666166
0.0131001077194
0.0131206194305
0.013131119675
0.0131370647305
0.0131410945921
0.0131444217949
0.0131475860762
0.0131508202518
0.0131542228402
0.0131578361124
0.0131620576158
0.0131671220149
0.0131729401996
0.0131793536696
0.0131862573659
0.0131935129438
0.0132009064509
0.0132080540717
0.013214206639
0.0132177963026
0.0132156138346
0.0132012251654
0.0131626544852
0.0130783982687
0.0129132574237
0.012611493701
0.0120922383692
0.011234382108
0.00986398805426
0.00775437086196
0.00665225369921
0.00666363080957
0.00778700333515
0.00988301368626
0.011223650259
0.0120479790542
0.0125417729712
0.0128257565634
0.0129818899606
0.0130639167859
0.0131055809072
0.0131265081547
0.013137430459
0.0131438149574
0.0131483101885
0.0131521341692
0.0131558300732
0.0131596328026
0.0131636550801
0.0131684391301
0.0131741629565
0.0131806481492
0.0131878585062
0.013195642432
0.0132038824739
0.0132124402684
0.013221104194
0.0132294908388
0.013236840774
0.0132415606428
0.0132404034886
0.0132268741364
0.0131889023489
0.0131048316698
0.01293935784
0.0126365461712
0.0121155024216
0.0112548653907
0.00988052277425
0.00776374016778
0.0066535234166
0.00666473163453
0.00778906465725
0.00988515984551
0.0112259669569
0.0120503225157
0.0125442343713
0.0128284172642
0.0129848285565
0.0130671842789
0.0131092192175
0.0131305505821
0.0131419100291
0.0131487657415
0.0131537689531
0.0131581399731
0.0131624243789
0.0131669211015
0.0131722443483
0.0131785249149
0.0131856977487
0.0131936168277
0.0132021868588
0.0132113420021
0.0132209351959
0.0132308203617
0.0132407865443
0.0132504516233
0.0132590429051
0.0132649509206
0.0132648958806
0.0132523209621
0.0132150712228
0.0131313485233
0.0129657451168
0.0126621316249
0.0121395451495
0.0112762982874
0.00989775128339
0.00777387651926
0.00665492756263
0.00666593853819
0.00779122211868
0.00988731409089
0.0112281506473
0.012052391744
0.0125462776237
0.0128305458314
0.0129871599774
0.013069806048
0.0131122030703
0.0131339514503
0.0131457759998
0.0131531413468
0.0131586987096
0.0131636699894
0.0131687001634
0.0131745477454
0.01318139821
0.0131891600793
0.0131977269159
0.0132070779818
0.0132170547275
0.0132275689156
0.0132385258099
0.0132497641709
0.013261070381
0.0132720526891
0.0132819353906
0.0132890876901
0.0132902004318
0.0132786490311
0.0132421944727
0.0131589120806
0.0129932626863
0.0126889264992
0.0121648410077
0.0112988200918
0.0099159682322
0.00778480256012
0.0066564486053
0.00666724990634
0.00779349485589
0.00988957002977
0.0112303553532
0.0120544413782
0.0125482443765
0.0128325562522
0.0129893519224
0.0130722860278
0.0131150589854
0.0131372506015
0.0131495759235
0.0131574939904
0.0131636557676
0.0131694064752
0.0131758199836
0.0131832205874
0.0131915245847
0.0132007220232
0.0132107410026
0.013221483715
0.0132328765619
0.013244791251
0.013257124172
0.0132697458988
0.0132824307728
0.0132947776195
0.0133060012912
0.0133144543655
0.0133167860442
0.0133063133786
0.0132706995627
0.0131878928715
0.0130222343281
0.0127171574908
0.0121914368074
0.0113225463406
0.00993526299397
0.00779647380025
0.00665807193701
0.00666866063118
0.00779588979269
0.00989194562193
0.0112326538452
0.0120565746264
0.012550276815
0.0128346239826
0.0129916051595
0.0130748425477
0.0131180166332
0.0131406847573
0.0131535509363
0.0131620687487
0.0131690259696
0.0131761754319
0.0131841493735
0.0131929719068
0.0132027467167
0.0132133699183
0.0132248294044
0.013236999882
0.0132498016399
0.0132631415452
0.0132768982866
0.0132909348323
0.013305034723
0.0133187940701
0.0133314080999
0.0133412077542
0.0133448019528
0.0133354417636
0.0133007021675
0.0132183771274
0.0130526650442
0.0127467512607
0.0122193309449
0.0113474850791
0.00995551373066
0.00780883862821
0.00665977744692
0.00667016789673
0.00779840061159
0.00989445421857
0.0112350632431
0.012058832599
0.0125524337795
0.0128368231524
0.0129940055351
0.0130775697053
0.0131211755488
0.0131443569592
0.0131578074434
0.0131671167864
0.0131754723498
0.0131841748253
0.0131935506844
0.0132038572233
0.0132150450925
0.0132271284202
0.0132400026934
0.0132536188872
0.0132678562553
0.0132826394129
0.0132978544695
0.0133133503291
0.0133289109077
0.0133441228629
0.0133581690184
0.0133693446138
0.0133742332063
0.0133660107326
0.0133321412306
0.0132502643222
0.0130844422677
0.012777618816
0.0122483866485
0.0113734571746
0.00997663783092
0.00782179588194
0.00666155910898
0.00667176421635
0.00780102441825
0.00989710178139
0.011237579088
0.0120612277958
0.0125547365289
0.0128391826179
0.0129965879501
0.0130805069303
0.0131245784529
0.0131483132749
0.0131625282634
0.0131732166893
0.0131831074087
0.013193193198
0.0132040429865
0.0132157547849
0.0132283939284
0.0132418966513
0.0132562229907
0.0132712772346
0.0132869872703
0.0133032446064
0.0133199519699
0.0133369493017
0.013354008942
0.0133707072341
0.0133862071154
0.0133987930987
0.0134049831847
0.0133978843269
0.0133648651943
0.0132833958279
0.0131173801737
0.0128095541367
0.012278400665
0.0114002613301
0.00999842546611
0.00783526578926
0.00666357591319
0.00667343529686
0.00780375236387
0.00989985917438
0.0112402056507
0.0120637616774
0.0125571929019
0.0128417154017
0.0129993691083
0.0130836730284
0.0131282456569
0.013152680775
0.0131682374286
0.0131804276593
0.0131916858707
0.0132032207361
0.0132154576109
0.0132286070864
0.0132426621417
0.0132576053739
0.0132733831868
0.0132899136193
0.013307116363
0.0133248898249
0.0133431229568
0.0133616515994
0.0133802361854
0.0133984393063
0.013415413718
0.0134293958527
0.0134368821453
0.0134308898659
0.0133986781023
0.0133175522842
0.0131512866288
0.0128423526009
0.0123091494122
0.0114276651528
0.0100206641376
0.00784910580449
0.00666645718806
0.00667516839253
0.00780662352528
0.00990270596482
0.0112429571306
0.0120664255759
0.0125598056524
0.0128444246169
0.0130023514342
0.0130870699884
0.0131322340061
0.0131579386598
0.0131749527328
0.0131885085263
0.0132011723477
0.0132140731935
0.0132277327839
0.0132422791631
0.013257762985
0.0132741550786
0.013291401582
0.0133094383828
0.0133281636854
0.0133474821011
0.0133672674468
0.0133873462788
0.0134074657449
0.013427175834
0.0134456068513
0.0134609842956
0.0134697413814
0.013464828283
0.0134334036208
0.0133525805112
0.0131859863471
0.0128758479345
0.0123404836794
0.0114555118073
0.0100431674436
0.00786314266665
0.00667033020742
0.00667697026504
0.00780985714796
0.00990567803246
0.0112458147552
0.0120691997451
0.012562564189
0.0128473000635
0.0130055253143
0.0130906921575
0.0131369857411
0.0131640858973
0.0131824782182
0.0131973732111
0.0132114007322
0.0132256891855
0.013240715888
0.013256680379
0.0132735921082
0.0132914429473
0.0133101922969
0.0133297505971
0.0133500278327
0.0133709095085
0.0133922575976
0.0134138884558
0.0134355347793
0.0134567374757
0.01347661958
0.0134933738203
0.0135034098674
0.0134995855632
0.0134689336917
0.013388400838
0.0132214406443
0.0129100126347
0.0123723546207
0.0114837233321
0.0100658546547
0.00787721371516
0.00667519218178
0.00667883028812
0.00781349056623
0.00990873270592
0.011248785268
0.0120720605743
0.0125654505324
0.012850324484
0.0130088751232
0.0130949050792
0.0131425671954
0.0131709866464
0.013190668674
0.0132069111387
0.0132222637264
0.013237909306
0.0132543254037
0.0132716836869
0.0132900397918
0.0133093741575
0.0133296365678
0.0133507386285
0.0133725785494
0.0133950264003
0.0134179333521
0.0134411016881
0.0134642646806
0.01348695705
0.0135082971085
0.0135264712092
0.013537824486
0.0135351353078
0.0135053060167
0.0134250738943
0.0132577066577
0.0129449106827
0.0124048382868
0.0115123457328
0.010088681906
0.00789121449471
0.00668079958308
0.00668071917421
0.0078174025953
0.00991183532305
0.0112518292349
0.0120749958889
0.0125684380721
0.0128534696077
0.0130125392883
0.0130997898737
0.0131487541856
0.0131784595628
0.0131994159814
0.0132169566502
0.0132336406857
0.0132506173739
0.0132684068062
0.01328718345
0.0133069870151
0.0133278149529
0.0133496043194
0.013372255658
0.013395655125
0.0134196568677
0.0134441054406
0.0134688022865
0.0134934844345
0.0135177038456
0.0135405763931
0.0135602483517
0.013573027728
0.0135715662351
0.0135426195271
0.0134627173292
0.0132949392489
0.0129806966912
0.0124380517436
0.0115414754675
0.0101116433341
0.00790645667397
0.00668694634796
0.00668262696076
0.0078215263139
0.00991499164352
0.0112549019397
0.0120779735323
0.0125714617582
0.0128566878246
0.0130167607635
0.0131052336545
0.0131553962104
0.0131863401926
0.0132085622177
0.0132273592932
0.0132453483661
0.01326366555
0.0132828185538
0.0133030048701
0.0133242706549
0.0133465963008
0.0133699135321
0.0133941053974
0.0134190424277
0.0134445773552
0.013470552137
0.013496793705
0.0135230559305
0.0135488976479
0.0135734224648
0.0135947413038
0.0136090654253
0.0136089396766
0.0135809688647
0.0135014363183
0.0133332435376
0.0130175144758
0.0124722032008
0.0115713694216
0.0101350081839
0.00792376053558
0.00669357022661
0.00668454275915
0.00782581126837
0.00991814523878
0.0112579680192
0.0120809172984
0.0125744430556
0.0128602004588
0.0130213724187
0.0131109468926
0.0131622717572
0.0131944055805
0.0132178548369
0.0132379025934
0.0132571647518
0.0132768046315
0.0132973280281
0.0133189258607
0.0133416479597
0.0133654609274
0.0133902863181
0.0134159885022
0.0134424346622
0.0134694846254
0.0134970036689
0.0135248508096
0.0135528050526
0.0135804133253
0.0136067459945
0.013629847759
0.0136458609475
0.0136471904517
0.0136202692277
0.0135411739246
0.0133725982346
0.0130553827715
0.012507376681
0.0116022460432
0.0101596000284
0.00794326133859
0.00670073435927
0.00668644545513
0.00783019923933
0.00992135643005
0.0112609292136
0.0120836797935
0.0125773116961
0.0128637787382
0.0130259602721
0.0131165589296
0.0131689910453
0.0132022658332
0.0132268996886
0.0132481695086
0.0132686872556
0.0132896297055
0.0133115075772
0.0133345071289
0.0133586694275
0.0133839449098
0.0134102349239
0.013437408944
0.0134653298653
0.0134938930109
0.0135230116605
0.0135525738937
0.0135823522686
0.0136118714753
0.0136401534295
0.0136651816945
0.0136829958035
0.0136858792257
0.0136601123769
0.0135815264146
0.0134126249529
0.0130939571606
0.0125432897741
0.0116338945764
0.0101864834025
0.00796468289212
0.00670842337806
0.00668831604051
0.00783455244041
0.00992460311242
0.0112635440378
0.01208593039
0.0125798070323
0.0128668735875
0.0130298435822
0.0131213526844
0.0131748080178
0.0132091560689
0.0132349222841
0.0132573726836
0.0132791202112
0.0133013383422
0.0133245428942
0.0133489153965
0.0133744686549
0.0134011504236
0.0134288503921
0.0134574325462
0.0134868031211
0.0135169066072
0.0135476969869
0.0135790725168
0.0136107920206
0.0136423318283
0.0136726693155
0.0136997134142
0.0137194206462
0.0137239521458
0.0136994210156
0.0136214528881
0.0134523633924
0.0131324148927
0.012579236088
0.0116661948876
0.0102150668753
0.00798721881246
0.00671646533167
0.00669013314226
0.00783869041115
0.00992753597168
0.0112654077256
0.0120870907645
0.0125808611206
0.0128681361602
0.0130316308941
0.013123843332
0.0131781806683
0.0132134967693
0.0132403116229
0.0132638790967
0.0132868011525
0.0133102482906
0.0133347242675
0.0133603932937
0.0133872681368
0.0134152654246
0.0134442768173
0.0134741994461
0.0135049851599
0.0135366398563
0.0135691446077
0.0136023844323
0.0136360828405
0.0136696847162
0.013702107192
0.0137311972171
0.0137528369952
0.0137590736637
0.0137359038884
0.0136587605081
0.0134898272725
0.0131692285856
0.0126143810944
0.011699139904
0.0102444021777
0.00801036251575
0.00672473393069
0.00669185494998
0.00784232872461
0.00992940827223
0.0112653517103
0.0120853760078
0.0125782445197
0.0128649635559
0.0130284478816
0.0131210127967
0.0131759634379
0.0132120697664
0.0132398049574
0.0132643817107
0.0132883874795
0.0133129665324
0.0133386100136
0.0133654713251
0.0133935283419
0.0134226989311
0.0134528896401
0.0134840358103
0.0135161663908
0.0135493271427
0.0135834928158
0.0136185361166
0.0136541537659
0.013689737639
0.0137241645789
0.0137552337447
0.0137788174879
0.013787130317
0.0137657708892
0.0136901882895
0.013522207578
0.0132019470888
0.0126468052585
0.0117305275014
0.0102731112557
0.00803347362264
0.00673311244349
0.00669339265733
0.00784466978982
0.00992839511129
0.0112604775475
0.0120769010675
0.0125670878325
0.0128519727978
0.0130144828733
0.0131067183542
0.0131618361131
0.0131984296011
0.0132268651346
0.0132522764255
0.0132771979049
0.0133027455423
0.0133293821725
0.0133572267398
0.0133862532764
0.0134163718418
0.0134475159732
0.013479697703
0.01351299724
0.013547468634
0.0135830939063
0.0136197257655
0.0136570155346
0.0136943339475
0.0137305258589
0.0137636209204
0.0137895049281
0.0138000060626
0.0137808975102
0.0137075086523
0.0135417144856
0.0132236348999
0.0126705901128
0.0117557674145
0.0102982991028
0.00805508775793
0.00674131670279
0.00669456616473
0.00784407560382
0.00992072039005
0.011244798552
0.0120538198846
0.0125381107463
0.0128187380785
0.0129785955943
0.0130693948375
0.0131239660634
0.0131605781016
0.0131893763087
0.0132153434894
0.0132409313494
0.0132671856314
0.0132945268763
0.0133230570487
0.0133527294571
0.013383456395
0.0134152333965
0.0134481307056
0.0134822522871
0.0135176701264
0.0135543597318
0.0135921392611
0.0136306569891
0.0136692533135
0.0137070027218
0.0137419874022
0.0137698849927
0.0137826726467
0.0137662899989
0.0136963117898
0.0135348284304
0.0132221816197
0.0126751579567
0.0117667987444
0.010314544194
0.0080726611671
0.00674893012192
0.00669488556622
0.00783655599089
0.00989813049162
0.0112061881267
0.0120006975429
0.0124735681469
0.0127459467828
0.0129004624764
0.0129881067769
0.0130410513237
0.0130769694913
0.0131056109119
0.0131317047577
0.0131575488683
0.0131840899709
0.0132117020128
0.0132404545134
0.0132702825498
0.013301130079
0.0133330294301
0.0133661023318
0.0134004735123
0.0134362182202
0.0134732951754
0.0135115290481
0.0135505457457
0.013589763332
0.0136286322732
0.0136648950962
0.013694429023
0.013709616211
0.0136966158187
0.0136316604004
0.0134775332554
0.013175184995
0.0126414058129
0.0117482337018
0.0103111874287
0.00808054149265
0.00675497995867
0.00669322542737
0.00781376703563
0.00984425529169
0.0111217044864
0.0118899838892
0.0123427422595
0.0126008791454
0.012746185299
0.0128282898366
0.0128781399605
0.0129124270435
0.0129402501579
0.0129659284796
0.012991488151
0.0130177811528
0.0130451143177
0.0130735010101
0.0131028829452
0.0131332216498
0.0131645853695
0.0131971321731
0.0132309925801
0.013266233075
0.0133028323438
0.0133406066691
0.013379176258
0.0134183074572
0.0134572759218
0.0134939940357
0.013524729758
0.0135420329832
0.0135332540115
0.0134757857351
0.013333512758
0.0130484708497
0.0125380976991
0.0116739613094
0.0102691049614
0.00806867973284
0.00675773362842
0.0066867993467
0.00775790988203
0.00972765910437
0.0109503104254
0.0116743330778
0.0120943069684
0.0123299844329
0.0124609986817
0.0125345541997
0.0125795173383
0.0126110199392
0.012637169437
0.0126616459597
0.0126861998128
0.0127115116228
0.0127377935413
0.0127650275182
0.0127931426093
0.012822121028
0.0128520679958
0.0128831244862
0.0129154283496
0.0129490606732
0.0129840234491
0.0130201423758
0.0130572272347
0.0130953281285
0.0131334113452
0.0131697387513
0.0132006859142
0.0132202667194
0.0132166645751
0.0131691297183
0.0130439943869
0.012785476625
0.0123128693441
0.0114980297394
0.0101525407893
0.00801580823817
0.00675301598058
0.00666945509934
0.00763522051425
0.00949317544007
0.0106241587914
0.0112786754176
0.0116496953018
0.0118530671448
0.0119641659486
0.0120260465883
0.0120643443759
0.0120919387896
0.0121155286979
0.0121379955854
0.0121607515382
0.0121842973564
0.0122087284367
0.0122339895186
0.0122599939301
0.0122867473383
0.0123143640618
0.0123429566064
0.0123726174321
0.0124034743202
0.012435617944
0.0124688930445
0.0125037168888
0.0125395777583
0.012575693336
0.0126103376217
0.0126409801285
0.0126622179379
0.0126645900684
0.0126297860902
0.012527634058
0.012306517077
0.0118894871829
0.0111514079272
0.00990487877667
0.00788650075031
0.00673336642047
0.00662771138306
0.0073821295032
0.00904559149332
0.0100321728683
0.0105846783642
0.0108874720453
0.0110480521476
0.0111337448639
0.0111811191267
0.0112111233509
0.0112336213027
0.0112535054716
0.0112728935078
0.0112927847423
0.01131342193
0.011334880313
0.0113570431635
0.0113798068341
0.0114031553381
0.0114271930136
0.0114520399062
0.0114777177203
0.0115042905772
0.0115323112717
0.0115624302578
0.0115942445199
0.0116269190621
0.0116598341367
0.0116919136709
0.0117210060023
0.0117434788428
0.0117517583983
0.0117314202844
0.0116573771296
0.0114846194863
0.0111436265722
0.0105172089966
0.00942572319396
0.00761321053104
0.00668328013589
0.00653667579887
0.00689032725837
0.00822972112789
0.00900049078235
0.00941247608069
0.00962773607662
0.00973676627695
0.00979342315219
0.0098247853782
0.00984555916086
0.00986185315621
0.00987690694547
0.00989197946269
0.00990758416943
0.00992386643652
0.00994084237687
0.00995842596446
0.00997646399014
0.00999486742242
0.0100137137619
0.0100331262593
0.0100532993476
0.010075216206
0.0100993868535
0.0101256332297
0.0101530965854
0.0101812457532
0.0102096910681
0.0102375947193
0.0102638571787
0.0102858497094
0.0102988864254
0.0102930078268
0.0102499652662
0.0101349710965
0.009891341742
0.00941884633924
0.00855885508263
0.00708839666051
0.00657821983687
0.0063724844906
0.00604387693407
0.00684951314635
0.0073037467811
0.00752983162214
0.00763941089235
0.00769100803928
0.00771675791907
0.00773088268866
0.00774057378865
0.00774871935097
0.00775675335022
0.00776504580999
0.00777378795669
0.00778302081172
0.00779277270483
0.00780309567734
0.00781390213156
0.00782506987546
0.00783787010359
0.00785249364497
0.00786868651547
0.00788609579895
0.00790482367212
0.0079251665774
0.00794634873765
0.00796792051494
0.00798963697996
0.00801113974852
0.00803182659541
0.0080504705581
0.00806486293084
0.00806994341253
0.00805610515882
0.00800285960654
0.00787519569751
0.00760573636138
0.00708580015295
0.00618298798418
0.00639640888976
0.00625990614096
0.00636510922488
0.00651189774567
0.00658969808055
0.00662385555557
0.00663813155497
0.00664402717051
0.00664668003623
0.00664802827869
0.00664899536492
0.00664987071327
0.00665077547933
0.00665173543439
0.00665276797697
0.00665402166849
0.00665636462233
0.0066592120249
0.00666260753318
0.00666666853847
0.00667140171489
0.00667673540897
0.00668256145445
0.00668879719211
0.00669541361267
0.00670248032729
0.00670985616616
0.00671738162817
0.00672500023128
0.00673259036952
0.00674002017148
0.00674707184261
0.00675338184145
0.00675807966671
0.00675954176254
0.00675379397839
0.00673344778398
0.00668297348026
0.00657736009771
0.00639369784464
0.00627088760877
0.00643020256017
0.00738430285298
0.00801213695009
0.00834182023672
0.00850223128979
0.00857649327112
0.00860938047415
0.00862390157414
0.0086306319985
0.00863438741749
0.00863711837447
0.00863965337088
0.00864228976004
0.00864511345506
0.00864816454354
0.0086514213871
0.00865490101795
0.00865858267363
0.00866242809608
0.00866640482809
0.00867050527411
0.00867476131438
0.00867909577101
0.00868344570216
0.00868780440556
0.00869216063099
0.00869648628435
0.00870071567293
0.00870477333158
0.00870850818219
0.00871151596102
0.00871283028262
0.00871003490464
0.00869770145092
0.00866386082299
0.00858418475261
0.00841174831009
0.00806238181797
0.00740787915123
0.00642975790004
0.00738168898871
0.0126161822139
0.0150504340511
0.0163432005082
0.0170220507715
0.0173665091027
0.0175337823725
0.0176123647865
0.017648895216
0.0176668543284
0.0176770405359
0.017684299102
0.0176905796693
0.0176967126372
0.0177029638859
0.0177094587357
0.017716199149
0.0177231856654
0.0177304154766
0.0177378349699
0.0177454101168
0.01775318316
0.0177609908326
0.0177688596421
0.017776742126
0.0177845190771
0.0177921553148
0.0177994820578
0.0178059267193
0.017810563249
0.017810829071
0.0178011639779
0.0177690959324
0.017689142624
0.0175114228444
0.0171455279668
0.0164316643113
0.0150933036655
0.0126071362813
0.00735760054462
0.00800743292155
0.0150471010935
0.0183878919501
0.0202481437288
0.0212813665105
0.0218385910217
0.022126660679
0.0222696435456
0.022338351775
0.0223714107809
0.0223882939165
0.0223983443836
0.0224057277817
0.0224122406953
0.0224186081256
0.0224251157158
0.0224318616168
0.0224388709536
0.0224461361486
0.0224536150227
0.0224612670505
0.0224690696922
0.022476980445
0.0224848994717
0.0224928026031
0.0225005663597
0.0225079970334
0.0225147101284
0.0225198486448
0.0225211371279
0.0225134413615
0.0224861881923
0.0224176720468
0.022266918667
0.021959880743
0.0213713932678
0.0202934554338
0.0183808733682
0.0149863155698
0.00796495228086
0.00833586358007
0.0163372200959
0.0202452578603
0.0224979649065
0.0237981963791
0.0245290705164
0.0249236258965
0.0251277307924
0.0252291514698
0.0252785036962
0.0253028885081
0.0253160433592
0.025324455764
0.0253310598382
0.0253371066059
0.0253431132361
0.0253492791795
0.0253556731901
0.0253623070066
0.0253691550115
0.025376211865
0.0253834507921
0.0253908106605
0.0253982292872
0.0254056202658
0.0254128228149
0.0254194985798
0.0254249338102
0.0254275684215
0.0254238910938
0.0254064757619
0.0253599448748
0.0252548030354
0.0250380024743
0.024618870265
0.0238513511986
0.0225022526005
0.0201958090133
0.0162371362598
0.00828170279255
0.00849564671909
0.0170141837634
0.0212762252793
0.0237958133895
0.0252904733175
0.0261556911872
0.0266374526482
0.026894424315
0.0270256690122
0.0270906451053
0.0271225857139
0.027139035751
0.0271486313576
0.0271554229593
0.0271612048992
0.0271667450799
0.0271723552503
0.0271781545013
0.0271841775199
0.0271904164247
0.0271968720056
0.0272035142164
0.0272102865836
0.0272171250336
0.0272239206499
0.0272304622326
0.0272363000212
0.0272404398991
0.0272406780793
0.0272322758457
0.0272055202223
0.0271410642581
0.0270030806393
0.0267298894589
0.0262199117086
0.0253150054859
0.0237697459618
0.0211969725156
0.0168889032944
0.00843519668023
0.00856973045802
0.017357576456
0.0218320138601
0.024525078481
0.026154018295