/*--------------------------------*- C++ -*----------------------------------*\
| =========                 |                                                 |
| \\      /  F ield         | foam-extend: Open Source CFD                    |
|  \\    /   O peration     | Version:     4.1                                |
|   \\  /    A nd           | Web:         http://www.foam-extend.org         |
|    \\/     M anipulation  |                                                 |
\*---------------------------------------------------------------------------*/
FoamFile
{
    version     2.0;
    format      ascii;
    class       volScalarField;
    location    "0.6";
    object      nut;
}
// * * * * * * * * * * * * * * * * * * * * * * * * * * * * * * * * * * * * * //

dimensions      [0 2 -1 0 0 0 0];

internalField   nonuniform List<scalar> 
96000
(
0.000217087407408
0.000219058322264
0.000221788799265
0.000223242107464
0.000223888806207
0.000224163105738
0.000224277383636
0.000224327827888
0.000224354018315
0.000224372228681
0.00022438842408
0.000224404982699
0.000224422695163
0.000224441866388
0.000224462560543
0.000224484744976
0.000224508369152
0.000224533332467
0.0002245595173
0.000224586647904
0.000224614468992
0.000224643359942
0.000224672734471
0.00022470229063
0.000224731985481
0.000224761546385
0.000224790769301
0.000224819322428
0.000224846815965
0.000224872594953
0.000224895153955
0.000224911113205
0.000224911767388
0.000224876792078
0.000224756732682
0.000224442662079
0.00022369853786
0.00022208605849
0.000219167959227
0.000217097654465
0.000219056826708
0.000142645615353
0.000152408456498
0.000157677905639
0.000160279465711
0.000161522112436
0.000162091923912
0.000162345985647
0.000162459137457
0.00016251371678
0.00016254517027
0.000162568479038
0.000162589413157
0.000162610302739
0.000162631862473
0.000162654367914
0.000162677829061
0.000162702219188
0.00016272748289
0.000162753458162
0.000162779998228
0.000162807170997
0.00016283814052
0.000162874344248
0.000162912179832
0.000162951555282
0.000162991050245
0.000163029744119
0.000163066380315
0.000163096721229
0.000163113033082
0.000163096197531
0.000163002841245
0.000162741491787
0.000162119565319
0.000160770032112
0.000157990992912
0.000152507142689
0.00014264251876
0.000219039542854
0.000221777071548
0.000152392617626
0.00016715872469
0.000175150423967
0.000179334707606
0.000181477878797
0.000182533807149
0.000183033738994
0.000183262886879
0.000183368168322
0.000183419712785
0.000183449520378
0.00018347113807
0.000183490148297
0.000183509051978
0.000183528896714
0.000183549565242
0.000183571151476
0.000183593589158
0.000183616808996
0.000183640570324
0.000183665114751
0.000183690116882
0.00018371526093
0.000183740452573
0.000183765393994
0.000183789545556
0.000183811583977
0.000183828588116
0.000183833518929
0.000183812554195
0.000183726949057
0.000183495022902
0.000182959006079
0.000181816587034
0.000179530396256
0.000175138228048
0.000166913532326
0.000152076493563
0.00022166760403
0.000223224151055
0.000157649285003
0.000175136318957
0.000184785344444
0.000190047085446
0.000192874002031
0.000194339724664
0.00019506891644
0.000195417512343
0.000195580872669
0.000195658830384
0.000195699776092
0.000195725618237
0.000195745896445
0.000195764257888
0.000195782098697
0.00019580039105
0.000195819320937
0.000195838965843
0.000195859206559
0.000195880094386
0.000195901461427
0.000195923250385
0.000195945646462
0.000195968396934
0.000195990637509
0.000196011454649
0.000196028669853
0.000196037216215
0.00019602549757
0.000195967751823
0.000195809256937
0.000195440029911
0.000194653379026
0.000193080441599
0.000190090243173
0.000184600937539
0.00017470875311
0.000157181492079
0.000223061529942
0.000223867731061
0.000160243257693
0.00017930961097
0.000190036094495
0.000196050644032
0.000199386695823
0.000201176730469
0.000202098258333
0.000202552513033
0.000202769507747
0.00020287241258
0.000202923614033
0.000202952638959
0.000202972847632
0.000202989974024
0.00020300641302
0.00020302312335
0.000203040472672
0.000203058574227
0.000203077415615
0.000203096995378
0.00020311723803
0.000203137974406
0.000203158650561
0.000203178962065
0.000203198613802
0.000203216143799
0.000203228516603
0.000203228604803
0.000203200757905
0.000203110665027
0.000202888828324
0.000202403250753
0.000201413307895
0.000199501267392
0.000195989778426
0.000189740007301
0.000178778049531
0.000159694420808
0.000223680564262
0.000224139360107
0.000161481929825
0.000181446094748
0.000192855828836
0.000199379251653
0.000203078433618
0.00020511127329
0.000206183665557
0.000206724708569
0.000206987927687
0.000207113582567
0.000207174992633
0.000207207970068
0.000207229182536
0.000207245988902
0.000207261540193
0.000207277136419
0.000207293299421
0.000207310214524
0.000207327915456
0.000207346415756
0.000207365638296
0.000207385425835
0.000207405565408
0.000207425666185
0.000207444927346
0.000207461581433
0.000207471647882
0.000207466230722
0.000207428740874
0.000207318811313
0.000207052187668
0.000206477174081
0.00020533008423
0.000203168551661
0.000199288867424
0.000192527849469
0.000180892900782
0.000160916933272
0.000223944608257
0.000224252950114
0.000162050044474
0.000182498446965
0.000194317334015
0.000201164711737
0.000205106574768
0.000207308528789
0.000208490110449
0.000209096383195
0.000209395772813
0.000209540125766
0.000209610587229
0.000209647672797
0.000209670624483
0.000209688109023
0.000209703904554
0.000209719600532
0.000209735850494
0.000209752900522
0.00020977081939
0.000209789629474
0.000209809250873
0.000209829529449
0.000209850231983
0.000209870907575
0.000209890634388
0.000209907418965
0.000209922325036
0.000209922655752
0.000209883212756
0.000209757420464
0.000209455624305
0.000208814420994
0.000207555328412
0.000205220605763
0.00020109519746
0.000194007494892
0.000181968604304
0.000161500090345
0.000224057451595
0.00022430350104
0.000162303933171
0.000182997139545
0.00019504475461
0.000202084159301
0.000206176747684
0.000208487848919
0.000209742433615
0.000210393891382
0.000210719380054
0.000210877990779
0.000210956007819
0.000210997153948
0.000211022486829
0.00021104162227
0.000211058805126
0.000211075844297
0.000211093493448
0.000211112043175
0.000211131584891
0.000211152143744
0.000211173634289
0.000211195897424
0.000211218693192
0.000211241610044
0.00021127149085
0.000211301601883
0.000211324767882
0.000211328462867
0.00021128795688
0.000211152923187
0.0002108284603
0.000210143512649
0.000208811275205
0.000206365112333
0.000202085881696
0.000194801522317
0.000182532413488
0.000161797116387
0.000224111728091
0.000224330132289
0.000162417707399
0.000183226388739
0.000195393176746
0.000202538050953
0.000206717339096
0.000209093641329
0.000210393411315
0.000211073892914
0.000211416938831
0.000211585799374
0.000211669854728
0.000211714826819
0.0002117429408
0.000211764438608
0.000211783880484
0.000211803226057
0.000211823297874
0.000211844415549
0.000211866684308
0.000211890125804
0.000211914650958
0.000211940150747
0.000211972262069
0.000212010858448
0.000212050854436
0.000212088800264
0.000212118510163
0.00021212705456
0.000212088341444
0.000211949573775
0.000211612489256
0.000210901350587
0.000209524472149
0.000207010973528
0.000202640884785
0.000195243541087
0.000182847288863
0.000161965240622
0.000224142797696
0.0002243490599
0.000162473361403
0.000183332611174
0.000195557440147
0.000202755892014
0.00020698139127
0.000209393875049
0.000210719767034
0.000211417822087
0.000211772188556
0.000211948294489
0.000212037228499
0.000212085852042
0.000212117077385
0.000212141524324
0.000212163948194
0.000212186403052
0.000212209754136
0.000212234337227
0.000212260263995
0.000212287572454
0.000212317881328
0.000212359432008
0.000212405007491
0.000212453088365
0.000212501859236
0.000212548101525
0.00021258537495
0.000212600298095
0.000212565773328
0.000212427538332
0.00021208531667
0.00021136039931
0.00020995858493
0.000207406799639
0.000202985402119
0.000195524697805
0.000183057759011
0.000162085903443
0.000224166195704
0.000224366192922
0.000162506158228
0.000183385536846
0.000195636962186
0.000202860419218
0.000207108730583
0.000209539971849
0.000210880178379
0.000211588526261
0.000211950162939
0.000212131536478
0.000212224592406
0.000212276782843
0.000212311390693
0.000212339245233
0.000212365213332
0.000212391403711
0.000212418705581
0.000212447462131
0.000212477846007
0.000212515889107
0.000212563144837
0.000212614925891
0.000212670206226
0.000212727680116
0.000212785530575
0.000212840461522
0.000212885876463
0.000212908140099
0.000212879400295
0.000212744566112
0.000212401942201
0.000211671111324
0.000210256577138
0.000207683691854
0.000203233460704
0.00019573613809
0.000183226704103
0.000162189260156
0.000224186632821
0.000224383951206
0.000162530993089
0.000183417017866
0.00019567993886
0.000202913797035
0.00020717244316
0.000209612841884
0.000210960697606
0.000211675158591
0.000212041728883
0.000212227253917
0.000212324057315
0.000212379862405
0.000212418133444
0.000212449806108
0.000212479806528
0.00021251027281
0.00021254210812
0.000212575752427
0.000212621113412
0.00021267380961
0.000212731587374
0.000212793355204
0.000212858289193
0.000212925251886
0.000212992411369
0.00021305638122
0.000213110465056
0.000213140718663
0.000213118926318
0.000212989202938
0.000212649243453
0.000211917241353
0.000210496919592
0.000207912459929
0.000203445311698
0.000195924718398
0.000183385512605
0.000162289680959
0.000224207668754
0.000224403130544
0.000162553670587
0.000183440524896
0.000195708177122
0.000202945431622
0.000207208210658
0.000209652867607
0.000211004916639
0.000211723314463
0.000212093626566
0.00021228278357
0.000212383237378
0.000212442810465
0.000212485044347
0.00021252092327
0.000212555402997
0.000212590644629
0.000212627946355
0.000212679360095
0.000212737202726
0.000212800346742
0.00021286840242
0.000212940294957
0.000213015130948
0.000213091774574
0.000213168408048
0.000213241636491
0.000213304711404
0.000213343426606
0.000213329216128
0.000213205841173
0.000212870279538
0.000212139701987
0.000210717273036
0.00020812604558
0.000203647710514
0.000196109883142
0.000183544239959
0.000162391839053
0.000224231499757
0.000224424059483
0.000162576465072
0.000183462035111
0.000195730842457
0.000202968647846
0.000207232659903
0.000209679249195
0.000211033853639
0.000211755183741
0.000212128738352
0.000212321384385
0.000212425579363
0.000212489157937
0.000212535685538
0.0002125761651
0.000212615583614
0.000212658072029
0.000212713831523
0.000212776163013
0.000212844656232
0.000212918317055
0.000212996446478
0.000213078478484
0.000213163328976
0.000213249815944
0.000213336124716
0.000213418917308
0.00021349123244
0.000213538755143
0.000213532736412
0.000213416441316
0.000213086286435
0.000212358523179
0.000210935813302
0.000208340112528
0.000203853103579
0.000196299535405
0.000183705127023
0.000162502890773
0.000224257271673
0.000224446863457
0.000162600203391
0.000183483841189
0.000195751732875
0.000202989179218
0.000207253147499
0.000209700652531
0.000211057127163
0.000211781016153
0.000212157697747
0.000212353905924
0.000212462046337
0.000212529924105
0.000212581103215
0.000212626614291
0.000212674535916
0.00021273458103
0.000212801451036
0.000212874594558
0.000212953378254
0.00021303754096
0.000213125995091
0.000213218068933
0.000213312982562
0.000213409453863
0.000213505719241
0.000213598221171
0.000213680053512
0.000213736762831
0.000213739353471
0.000213630608786
0.000213306407469
0.000212582201842
0.000211159991996
0.000208560678618
0.000204065154146
0.000196494000714
0.000183874884559
0.000162619923798
0.000224284736566
0.000224471514627
0.000162625136145
0.0001835065398
0.000195772721216
0.000203009437437
0.000207272842625
0.00020972087659
0.000211079007171
0.000211805402316
0.000212185296413
0.000212385257874
0.000212497614392
0.000212570122649
0.000212626361402
0.000212681233121
0.000212746043204
0.000212817329792
0.000212894817864
0.000212978488686
0.000213067863809
0.000213162261785
0.000213261075728
0.000213363401354
0.000213468414569
0.000213575097146
0.000213681424673
0.000213783896046
0.000213875530215
0.000213941734391
0.000213953205387
0.000213852328566
0.000213534361057
0.000212813954345
0.000211392560991
0.000208789164406
0.000204283777583
0.000196697341248
0.000184051698001
0.000162742435445
0.000224313562761
0.000224497914937
0.000162651354909
0.000183530351089
0.000195794493936
0.000203030400583
0.000207293066266
0.000209741535273
0.00021110133155
0.000211830336267
0.000212213628906
0.000212417595927
0.000212534475382
0.00021261199662
0.000212678082429
0.000212749340992
0.000212825398246
0.000212907098648
0.000212995291958
0.00021308937722
0.000213189253368
0.000213294045987
0.000213403146903
0.000213515832022
0.000213631248634
0.000213748166504
0.000213864741502
0.000213977424319
0.000214079092215
0.000214154985353
0.000214175527
0.000214082640159
0.000213771036731
0.000213054403859
0.000211632988698
0.000209024834152
0.000204510706375
0.000196907782104
0.00018423433729
0.000162869625352
0.000224343312932
0.00022452601683
0.000162678775842
0.000183555397785
0.000195817231203
0.000203052451463
0.000207314357343
0.000209763301718
0.000211124876323
0.000211856666248
0.000212243590201
0.000212451843843
0.000212573600025
0.000212661034617
0.000212743202943
0.000212825625806
0.00021291196978
0.000213004419806
0.000213102929021
0.000213207589644
0.000213317757513
0.000213433004089
0.000213552478373
0.000213675633059
0.000213801502678
0.000213928870644
0.000214055890196
0.00021417893214
0.00021429078021
0.000214376422182
0.000214406103148
0.000214321232735
0.000214015764908
0.000213302203423
0.000211880656917
0.00020926766472
0.000204743676683
0.000197123676754
0.000184421696878
0.000163000182629
0.00022437381435
0.000224555668604
0.000162707389283
0.000183581699758
0.000195840906942
0.000203075694643
0.000207336897049
0.000209786423516
0.00021114994241
0.000211884733332
0.00021227555025
0.000212488417637
0.000212619670238
0.000212723095011
0.00021281628804
0.000212908853201
0.000213005839547
0.000213108528177
0.000213217509615
0.000213332453243
0.000213453065481
0.000213578662281
0.000213708705804
0.000213842372176
0.000213978824543
0.000214116810805
0.000214254390734
0.000214387863653
0.000214509872336
0.000214605321312
0.000214644007528
0.00021456680512
0.000214267090966
0.000213556447446
0.000212134077039
0.000209515460546
0.000204980915878
0.00019734312298
0.000184611705685
0.000163133054457
0.000224411269139
0.000224586601387
0.000162737091188
0.000183608994912
0.000195865527101
0.000203100135887
0.000207360748181
0.000209811008463
0.000211176669102
0.000211914693034
0.000212309686231
0.000212530853742
0.0002126783934
0.000212792603012
0.000212895782491
0.000212998807941
0.000213105885759
0.000213218925771
0.000213338123128
0.000213463398638
0.000213594393501
0.000213730504448
0.000213871152255
0.000214015463592
0.000214162606243
0.000214311262042
0.00021445940833
0.000214603265981
0.000214735400994
0.000214840353737
0.000214887779045
0.000214817975518
0.000214523621163
0.000213815269578
0.000212391585016
0.000209766565746
0.00020522058464
0.000197564150501
0.000184802393945
0.000163266684128
0.000224465777386
0.000224618615117
0.00016277018774
0.000183637088815
0.000195891469438
0.000203125446176
0.000207385924999
0.000209837068872
0.000211205057485
0.000211946543721
0.000212347730133
0.000212585822829
0.000212743832818
0.000212867952736
0.000212981300468
0.000213094240028
0.000213211545916
0.00021333465138
0.000213464067064
0.000213599666525
0.000213741069388
0.000213887841002
0.000214039094074
0.000214194136095
0.000214351998702
0.000214511302516
0.000214669895927
0.000214823940538
0.000214965858306
0.000215080143035
0.000215136002114
0.000215073266393
0.000214783992346
0.000214077541302
0.000212651904147
0.000210019758232
0.000205461554652
0.000197785529969
0.000184992214097
0.000163399399042
0.000224536655855
0.000224651843667
0.000162811522191
0.000183666291232
0.00019591885754
0.000203151203601
0.00020741231096
0.000209864490222
0.000211234998441
0.000211980278056
0.000212398571098
0.000212646676371
0.000212814615911
0.000212948469179
0.000213071667454
0.000213194596158
0.000213321750114
0.000213454972633
0.000213594542897
0.000213740448223
0.000213892433799
0.000214049754327
0.000214211757823
0.000214377501584
0.000214545960287
0.000214715690046
0.000214884503259
0.000215048490555
0.000215200035509
0.00021532340893
0.000215387642566
0.000215331933247
0.000215047537788
0.000214342798239
0.000212914856857
0.00021027494518
0.000205703579555
0.000198006776354
0.000185180594064
0.000163529797009
0.000224623851175
0.00022468607711
0.000162856486288
0.000183696246039
0.00019594715574
0.000203177670396
0.000207439725809
0.000209893099039
0.000211266371435
0.000212025655056
0.000212454782104
0.00021271240882
0.000212889708265
0.000213033275495
0.000213166060076
0.000213298730193
0.000213435798724
0.000213578937929
0.00021372868665
0.000213885001263
0.0002140475153
0.000214215428413
0.000214388023496
0.000214564318536
0.000214743189076
0.000214923121074
0.000215101959553
0.000215275772472
0.000215436918129
0.000215569602492
0.000215642408108
0.000215593968351
0.000215314702146
0.000214611657691
0.000213181061034
0.000210532799569
0.000205947420618
0.000198228425061
0.000185367347925
0.000163657243506
0.000224723504229
0.000224720788127
0.000162903975542
0.000183726600806
0.000195976015366
0.000203204701982
0.000207467913764
0.0002099226365
0.000211304277189
0.000212076434043
0.000212514819355
0.000212781697883
0.000212968234623
0.000213121161569
0.000213263504913
0.000213405716177
0.000213552539137
0.000213705703085
0.000213865594841
0.00021403228687
0.000214205198799
0.000214383607899
0.000214566654487
0.000214753263163
0.000214942300479
0.000215132281995
0.00021532110763
0.000215504970535
0.000215676199047
0.000215818707179
0.000215900786372
0.000215860192508
0.000215586414199
0.000214885199511
0.000213451881545
0.00021079471642
0.000206194251437
0.000198451536769
0.000185552709028
0.000163817691378
0.000224832456024
0.00022475579655
0.000162953270399
0.00018375739399
0.000196005020827
0.000203232461108
0.000207495836264
0.000209952763706
0.000211349657727
0.000212130437067
0.000212577451527
0.000212853237632
0.000213048894869
0.000213210894043
0.000213362577579
0.000213514355802
0.000213670836614
0.000213833843141
0.000214003877534
0.000214180801088
0.000214364049145
0.000214552752065
0.000214745962356
0.000214942636372
0.000215141670382
0.000215341789365
0.000215541021006
0.000215735594279
0.000215917736088
0.000216071076493
0.000216163234092
0.00021613120367
0.000215863512768
0.000215164382768
0.000213728329247
0.000211062037837
0.000206445970643
0.000198678511251
0.000185739414282
0.000163996683737
0.000224949751263
0.000224790890491
0.000163003800512
0.000183788239198
0.000196033837541
0.000203259877152
0.000207523131721
0.000209991616963
0.000211396866306
0.000212185451652
0.000212640800565
0.000212925137561
0.00021312962288
0.000213300632274
0.000213461423901
0.000213622539255
0.000213788626512
0.000213961433693
0.000214141481336
0.000214328447829
0.000214521763271
0.000214720426346
0.000214923509162
0.000215130076359
0.000215339226363
0.000215549921497
0.000215760353701
0.000215966655135
0.000216160795717
0.000216325925873
0.000216429149189
0.000216406496902
0.000216145410315
0.000215448854482
0.000214010344964
0.000211335083862
0.000206703473743
0.00019891144295
0.000185943065321
0.000164195701383
0.000225076319106
0.000224825696826
0.000163054920966
0.000183822958351
0.000196061502754
0.000203285482728
0.000207552485383
0.000210029942494
0.000211442453597
0.000212238228392
0.000212701462295
0.000212994001881
0.000213206986289
0.000213386710072
0.000213556429822
0.000213726719045
0.000213902238316
0.000214084712312
0.000214274499129
0.000214471236113
0.0002146741973
0.000214882460807
0.000215095134612
0.000215311579027
0.000215531246357
0.000215753295943
0.000215975868764
0.000216194919668
0.000216402061389
0.000216579978348
0.000216695052786
0.000216682481162
0.000216428750761
0.000215735342455
0.000214294934798
0.000211611185459
0.000206964610285
0.000199149009324
0.000186181840456
0.000164412140572
0.000225211736416
0.000224859865298
0.000163105196025
0.000183860075817
0.000196085883904
0.000203306272364
0.000207581312418
0.000210062461093
0.000211480232459
0.000212282368541
0.000212752807398
0.000213052969245
0.000213274039477
0.000213462164908
0.000213640572696
0.000213819790368
0.000214004473808
0.000214196296528
0.000214395380728
0.000214601376044
0.000214813507198
0.000215030875436
0.000215252948872
0.000215479462312
0.000215710153473
0.000215944250582
0.000216179780945
0.000216412352043
0.000216633231171
0.000216824563688
0.000216952136589
0.000216950330396
0.000216704625162
0.000216015307706
0.000214574239032
0.000211883615847
0.000207223933921
0.000199403850479
0.000186432956906
0.000164638459823
0.000225353108388
0.000224892992129
0.000163152557687
0.000183892930394
0.000196106661874
0.000203321336609
0.000207595644702
0.000210077199284
0.000211497990562
0.000212304666022
0.000212781114789
0.000213088062753
0.000213316540678
0.000213512543185
0.000213699181693
0.000213886916604
0.000214080299328
0.000214280799056
0.000214488586832
0.000214703103036
0.000214923638817
0.000215149597238
0.000215380808273
0.000215617441677
0.000215859427218
0.000216105896541
0.000216354626051
0.000216600970931
0.000216835762877
0.00021704069145
0.000217181062482
0.000217190529389
0.000216953936595
0.000216270632741
0.000214832751472
0.000212146031006
0.000207488261247
0.000199670895293
0.000186687880951
0.00016486922599
0.0002254981482
0.000224924288539
0.000163193592699
0.00018391381924
0.00019610974123
0.000203309727843
0.000207575182756
0.000210051009785
0.000211470325731
0.000212278533877
0.000212758797281
0.000213071055522
0.000213305897423
0.000213508921475
0.00021370306673
0.000213898560684
0.000214099777467
0.000214308119234
0.000214523527568
0.000214745477082
0.000214973433481
0.000215207125268
0.000215446933133
0.000215693313703
0.000215946162733
0.000216204522239
0.000216465961377
0.000216725451199
0.000216973533862
0.000217191598342
0.000217345937375
0.000217377269726
0.000217159325129
0.0002164923617
0.000215065468643
0.000212385941375
0.000207733484995
0.000199919333691
0.000186933318897
0.000165097437392
0.000225644668373
0.000224952060828
0.000163219180124
0.000183904344597
0.000196065786247
0.000203234913242
0.000207477152969
0.000209936574361
0.000211346470919
0.00021215064993
0.000212631048284
0.000212946148742
0.000213185595277
0.000213394280927
0.00021359466045
0.000213796638774
0.000214004343065
0.000214218965826
0.000214440408429
0.000214668140514
0.000214901887199
0.000215141934678
0.000215389035376
0.000215643722476
0.000215905942559
0.000216174590741
0.000216446918349
0.000216717739418
0.000216977412883
0.000217215202904
0.000217394648477
0.000217442541316
0.000217241950228
0.000216593267909
0.000215186071414
0.000212528235572
0.00020789953648
0.00020010891438
0.000187141746635
0.000165307354607
0.000225787456312
0.00022497288699
0.00016321055894
0.00018382681184
0.000195919315474
0.000203026903739
0.000207220288232
0.000209643956042
0.000211030926616
0.000211822080352
0.00021229681947
0.000212611008511
0.000212852450569
0.000213064721291
0.000213269533512
0.000213475996999
0.000213688154683
0.000213906938686
0.000214132139068
0.000214363292823
0.000214600596514
0.000214844764564
0.000215096729545
0.000215357158939
0.000215625961738
0.000215901802287
0.000216181894455
0.000216460877991
0.000216736668019
0.000216993855896
0.000217188485984
0.00021725406792
0.000217075185696
0.000216454207422
0.000215083056694
0.00021247145746
0.00020789695419
0.000200168231405
0.000187261878443
0.000165471337952
0.000225918870664
0.000224977574353
0.000163122853807
0.000183599755428
0.000195558656903
0.000202549348968
0.000206651132559
0.000209007982672
0.000210350854505
0.00021111533254
0.000211575865554
0.000211883623321
0.000212123178178
0.000212335969034
0.000212542127989
0.000212750270733
0.00021296389323
0.000213183689771
0.000213409341117
0.000213640641408
0.000213878063889
0.000214122702383
0.000214375650348
0.000214637615325
0.000214908405426
0.000215186726658
0.000215469655706
0.000215754519432
0.000216046567289
0.000216313787617
0.00021652158138
0.000216606123711
0.000216454852762
0.000215874870069
0.000214562966827
0.000212033588893
0.000207565414519
0.000199962752519
0.000187193170727
0.000165528661826
0.000226021026313
0.000224945381391
0.000162863857661
0.000183064588175
0.000194776321615
0.000201561455615
0.000205506038022
0.000207750405505
0.000209019427116
0.000209738770306
0.000210173822475
0.00021046813703
0.000210701104949
0.000210910703458
0.000211114444812
0.000211320876969
0.000211532495836
0.000211749604543
0.000211971947499
0.000212199466053
0.000212432887483
0.000212673577082
0.000212922697967
0.00021318091624
0.000213448190456
0.000213723183348
0.000214003097045
0.000214295508968
0.000214589837014
0.000214862268177
0.000215080802586
0.000215184499396
0.000215068335759
0.000214548105055
0.000213328729357
0.000210932184043
0.000206643014126
0.000199265040399
0.000186757172221
0.000165371753657
0.000226062531909
0.000224825693408
0.000162238762439
0.000181917190416
0.000193199149249
0.00019964593579
0.000203340036902
0.000205410661455
0.000206567432584
0.000207218725887
0.00020761481032
0.000207887328683
0.000208107870833
0.000208308229013
0.000208505639066
0.00020870578409
0.000208910670924
0.000209120318505
0.000209334383805
0.000209552968111
0.000209777063255
0.000210007919841
0.00021024677133
0.000210494436693
0.000210751078582
0.00021101548451
0.000211290702195
0.000211584323461
0.000211875209768
0.000212147951261
0.000212372715437
0.000212498004298
0.000212425984285
0.000211985297313
0.000210897540203
0.000208699198407
0.000204688146296
0.000197674744974
0.000185621162789
0.000164775828015
0.000225968474139
0.000224508694549
0.000160880608391
0.000179621467318
0.000190200982521
0.000196126309418
0.000199451509208
0.000201274957001
0.000202276864525
0.000202836331823
0.000203180274525
0.000203423186549
0.000203624557232
0.000203811694164
0.000203997886332
0.000204187362211
0.000204381127136
0.000204578852446
0.000204780058905
0.000204985013272
0.000205194792447
0.000205410444848
0.000205632885274
0.000205863329673
0.000206102705351
0.000206350509316
0.000206624986402
0.000206907283083
0.000207188941627
0.000207455714479
0.000207685004569
0.000207830935658
0.000207811725763
0.000207473386712
0.000206561208498
0.000204638640268
0.000201029543795
0.000194568637057
0.000183246744085
0.000163363533769
0.000225606913019
0.000223756303838
0.000158085291443
0.000175213217188
0.000184697302467
0.000189861114611
0.00019267247908
0.000194167461621
0.000194971048218
0.000195416244162
0.000195695768389
0.000195900140546
0.000196075001046
0.000196242538588
0.000196411146539
0.000196583187788
0.000196759329988
0.000196938695025
0.000197120613493
0.000197305196179
0.000197493484818
0.00019768660541
0.000197884926905
0.000198089341255
0.000198310007476
0.000198558932248
0.000198819999079
0.00019908682118
0.000199353758273
0.000199611065989
0.000199839917894
0.000200006789772
0.000200044721353
0.000199826610081
0.00019913233894
0.000197567958392
0.000194506811734
0.000188840700305
0.000178644530351
0.000160401782604
0.000224705163429
0.000222130362289
0.000152583949829
0.000166973494837
0.000174789977191
0.000178880394628
0.00018101396757
0.000182100966223
0.000182670724141
0.000182986208675
0.000183192327988
0.000183347685957
0.000183489776885
0.000183628799757
0.000183770079097
0.000183914886219
0.000184063315116
0.000184214521151
0.000184367335927
0.000184521263158
0.000184677230559
0.000184836479395
0.000185006828046
0.000185203865054
0.000185418742784
0.000185650343264
0.000185891702824
0.00018613805295
0.000186385604584
0.000186626748141
0.000186850501593
0.000187031895802
0.00018712561311
0.000187037186319
0.000186595074225
0.000185473707226
0.000183133830108
0.00017858698515
0.000170100603975
0.000154634771246
0.000222830071221
0.000219194600615
0.000142695686014
0.00015211093302
0.000157226803105
0.000159749819166
0.000160979828391
0.000161564859262
0.000161859579567
0.000162020572863
0.000162128352362
0.000162219685249
0.000162307188892
0.000162395217371
0.000162485910415
0.000162579609702
0.000162676411479
0.000162776573862
0.000162879266148
0.000162986990238
0.000163122139573
0.00016327418316
0.0001634408622
0.000163619060633
0.000163809668779
0.000164015424054
0.000164228951044
0.000164445785937
0.000164663350872
0.000164877704164
0.0001650823799
0.000165263955442
0.000165398138145
0.000165429837818
0.000165255797319
0.000164658096764
0.000163262582443
0.000160337132552
0.00015461492989
0.000144236418583
0.00021957997918
0.000217101477043
0.000219046179083
0.000221669763915
0.000223063543524
0.000223682358864
0.000223944779652
0.000224054306442
0.000224103663429
0.000224128243036
0.000224146932044
0.000224163289495
0.000224179825817
0.000224196952332
0.000224214979576
0.000224238317363
0.000224282141518
0.000224334895659
0.00022439715912
0.000224470718078
0.000224555726667
0.000224651024925
0.000224754840215
0.00022486575373
0.000224983285927
0.000225108497811
0.000225238944346
0.000225371932551
0.000225506391079
0.000225640134631
0.000225770778028
0.000225894253838
0.000226003860099
0.000226083468171
0.000226103494818
0.000225992218143
0.000225618617443
0.000224708935804
0.000222821160647
0.000219533244474
0.000217302015798
0.000220123432659
0.000236266425749
0.000246376325025
0.000251575566674
0.000254099301846
0.000255273907565
0.000255798834397
0.000256031894352
0.000256139079923
0.00025619721866
0.000256239895741
0.000256281335541
0.000256323786679
0.00025636884108
0.000256417158637
0.000256468528203
0.000256523175214
0.000256580799448
0.000256640860178
0.000256702849583
0.000256766625573
0.000256832649165
0.000256899752422
0.000256967029074
0.000257034359273
0.000257101489721
0.000257167988246