/*--------------------------------*- C++ -*----------------------------------*\
| =========                 |                                                 |
| \\      /  F ield         | foam-extend: Open Source CFD                    |
|  \\    /   O peration     | Version:     4.1                                |
|   \\  /    A nd           | Web:         http://www.foam-extend.org         |
|    \\/     M anipulation  |                                                 |
\*---------------------------------------------------------------------------*/
FoamFile
{
    version     2.0;
    format      ascii;
    class       volScalarField;
    location    "0.6";
    object      p;
}
// * * * * * * * * * * * * * * * * * * * * * * * * * * * * * * * * * * * * * //

dimensions      [1 -1 -2 0 0 0 0];

internalField   nonuniform List<scalar> 
96000
(
5262.01011111
5261.89700137
5261.76220473
5261.51078843
5261.23104395
5260.86116124
5260.44588574
5259.95938844
5259.42030574
5258.82084734
5258.16904976
5257.46451519
5256.7120484
5255.91420365
5255.07526205
5254.19915977
5253.29050079
5252.35410145
5251.39506046
5250.41890105
5249.43111547
5248.43758753
5247.4445528
5246.45807154
5245.48444304
5244.52993486
5243.60082858
5242.70313928
5241.84321779
5241.02611998
5240.25883485
5239.54381897
5238.89101032
5238.29595799
5237.77819541
5237.3167189
5236.95447047
5236.64033202
5236.45448689
5236.32481811
5261.87688777
5261.74189793
5261.58916409
5261.32282814
5261.03432417
5260.658833
5260.23899972
5259.74874168
5259.20543214
5258.60153527
5257.94465444
5257.23460231
5256.47608805
5255.67178713
5254.82599506
5253.94272167
5253.0266123
5252.08253813
5251.11564269
5250.1314749
5249.13563027
5248.13398895
5247.13283976
5246.13829739
5245.15665247
5244.19422595
5243.25729703
5242.35189064
5241.4842991
5240.65957266
5239.88452007
5239.16166012
5238.50059674
5237.89723575
5237.37101739
5236.90156247
5236.53443971
5236.21425072
5236.03304324
5235.88742504
5261.70863687
5261.55660469
5261.38609978
5261.09856789
5260.79246558
5260.4016958
5259.96780122
5259.46486483
5258.90864322
5258.29183943
5257.62125109
5256.89682538
5256.12301222
5255.30258049
5254.4398012
5253.53877218
5252.60420251
5251.64105877
5250.65457659
5249.65042979
5248.63430851
5247.61225275
5246.59064464
5245.57570606
5244.57391151
5243.59168743
5242.63547268
5241.71144504
5240.8260222
5239.98449265
5239.19370829
5238.45658913
5237.78256346
5237.16815215
5236.63226182
5236.15450675
5235.78020565
5235.44854017
5235.25893852
5235.09139103
5261.40175851
5261.23498175
5261.04302744
5260.73234809
5260.40447211
5259.9932959
5259.53920611
5259.01635093
5258.43916995
5257.80049086
5257.10645393
5256.35711712
5255.55674419
5254.70822648
5253.8158725
5252.88392145
5251.91721654
5250.92088188
5249.90034318
5248.86141427
5247.81002373
5246.75241068
5245.69518694
5244.6447696
5243.60787763
5242.59114683
5241.60124497
5240.64458131
5239.72776945
5238.85637065
5238.03735013
5237.27401684
5236.57581055
5235.93986567
5235.38517428
5234.89172712
5234.50623484
5234.16453924
5233.9727391
5233.7961206
5261.05347668
5260.87821212
5260.66884861
5260.33656442
5259.98546902
5259.55019367
5259.07100535
5258.52226884
5257.91763752
5257.25001142
5256.52503554
5255.74282113
5254.90748771
5254.0220323
5253.0908273
5252.11827176
5251.10938243
5250.06947516
5249.00421915
5247.91965501
5246.82199898
5245.71776018
5244.61381603
5243.51688283
5242.43400634
5241.37212554
5240.33824289
5239.33910001
5238.38162837
5237.4717551
5236.61670836
5235.82021204
5235.09181991
5234.42903331
5233.8507461
5233.33675508
5232.93385199
5232.57591031
5232.37187408
5232.1837053
5260.59481519
5260.41412564
5260.18976191
5259.83723835
5259.46215588
5259.00002791
5258.49142552
5257.91089453
5257.27178003
5256.56704514
5255.80209602
5254.97712067
5254.096215
5253.16252304
5252.18055505
5251.1549254
5250.09089071
5248.9940286
5247.87032056
5246.72609257
5245.56793941
5244.40272681
5243.23768109
5242.07992085
5240.93688564
5239.81591823
5238.72443548
5237.669588
5236.65870125
5235.69810704
5234.79536943
5233.95457646
5233.18550706
5232.48589336
5231.87477777
5231.33180517
5230.90409566
5230.52502514
5230.30436509
5230.10642137
5260.07539537
5259.89029029
5259.65213383
5259.27954202
5258.87946692
5258.38791271
5257.84621161
5257.22895835
5256.54956895
5255.80104451
5254.98875255
5254.11297399
5253.17787768
5252.18678633
5251.14440699
5250.05561245
5248.92595029
5247.76131248
5246.56805041
5245.35285919
5244.12275594
5242.8850338
5241.64733246
5240.41725675
5239.20271112
5238.01152244
5236.85159814
5235.73057647
5234.65626263
5233.6354516
5232.67613556
5231.78277648
5230.96549872
5230.22219522
5229.5722264
5228.99506028
5228.53826002
5228.1353659
5227.89618395
5227.6894117
5259.46588539
5259.27720992
5259.02670201
5258.63434332
5258.20851808
5257.6851679
5257.10674595
5256.44776345
5255.72202424
5254.92258014
5254.05495524
5253.11957608
5252.1207946
5251.06216973
5249.94867959
5248.78551496
5247.57857858
5246.33414509
5245.05899909
5243.76027423
5242.44547929
5241.12240956
5239.79919905
5238.48401542
5237.18530168
5235.91144882
5234.67092948
5233.4719382
5232.32283018
5231.23090778
5230.20466003
5229.24892071
5228.37425565
5227.57865274
5226.88196635
5226.26341698
5225.77122364
5225.33944076
5225.07748883
5224.86077605
5258.78677745
5258.59406645
5258.33088714
5257.91763578
5257.46439116
5256.90645418
5256.28765147
5255.58221229
5254.80453292
5253.94769622
5253.01752035
5252.01461625
5250.94360813
5249.8083427
5248.61413448
5247.36654697
5246.07189684
5244.73690221
5243.36884346
5241.97535669
5240.56450257
5239.14464465
5237.72448314
5236.31281499
5234.91869218
5233.55113992
5232.21926678
5230.93189166
5229.697994
5228.52544689
5227.42332724
5226.3968893
5225.45727869
5224.60260529
5223.85347194
5223.18885915
5222.65803638
5222.19550257
5221.91044325
5221.68446632
5258.02888543
5257.83199329
5257.55613893
5257.12104916
5256.63881253
5256.04355979
5255.38073475
5254.62412741
5253.78890496
5252.86818138
5251.86819237
5250.78978234
5249.63793401
5248.41683999
5247.13221908
5245.79006721
5244.39717749
5242.96077756
5241.48870078
5239.9891567
5238.47081307
5236.94267185
5235.41407028
5233.89449915
5232.39369008
5230.92137083
5229.48735323
5228.10114627
5226.77242148
5225.50967699
5224.32265262
5223.2170578
5222.20472442
5221.28387228
5220.47603137
5219.75983289
5219.18586226
5218.68894538
5218.37818598
5218.14213984
5257.20084755
5256.99915617
5256.70974458
5256.25114393
5255.73777388
5255.10216446
5254.39156281
5253.57915458
5252.68099939
5251.6902253
5250.61357554
5249.45216645
5248.21141019
5246.89589849
5245.51181612
5244.06564858
5242.56472596
5241.01684458
5239.43045155
5237.81438422
5236.17798751
5234.5309576
5232.88334099
5231.24537991
5229.62754924
5228.04033982
5226.4943296
5224.99977874
5223.56711868
5222.20553591
5220.92551731
5219.73328669
5218.64149238
5217.64849765
5216.77697756
5216.00515919
5215.38526949
5214.85225147
5214.51528095
5214.26965685
5256.30185118
5256.09497755
5255.79129262
5255.30763627
5254.761046
5254.0820991
5253.32003023
5252.44729254
5251.48095064
5250.41414026
5249.25419304
5248.00253728
5246.66508122
5245.24686857
5243.75461076
5242.19534095
5240.57698589
5238.90797291
5237.19741642
5235.45485097
5233.69035027
5231.91437036
5230.13772416
5228.37145978
5226.6268539
5224.91521763
5223.24795072
5221.63612256
5220.09098736
5218.622473
5217.24189176
5215.95602807
5214.77844851
5213.70766199
5212.76765369
5211.9361405
5211.26722979
5210.69581659
5210.33125321
5210.07612228
5255.33700667
5255.12445681
5254.80549216
5254.29501481
5253.71293501
5252.98760378
5252.17040405
5251.2329414
5250.19337701
5249.04484438
5247.79533036
5246.44660993
5245.0051463
5243.47648564
5241.86792428
5240.18710097
5238.44259832
5236.64353196
5234.79974338
5232.92151654
5231.01971527
5229.10560306
5227.19081654
5225.28725742
5223.40705888
5221.56239877
5219.76555602
5218.02846001
5216.36324195
5214.78063417
5213.29283861
5211.90724739
5210.63845509
5209.48512981
5208.4727392
5207.57841214
5206.85836489
5206.24733377
5205.85478726
5205.5910175
5254.30898774
5254.09039479
5253.75524349
5253.21630086
5252.59656003
5251.82192731
5250.94608853
5249.93971174
5248.82214287
5247.58651016
5246.24151842
5244.78932466
5243.23700467
5241.59065885
5239.8582282
5238.048015
5236.16931362
5234.231986
5232.24664703
5230.22438982
5228.17691396
5226.11634348
5224.05518908
5222.00625482
5219.98257267
5217.99724214
5216.06345561
5214.19404773
5212.4020849
5210.6991267
5209.09833566
5207.60775093
5206.243079
5205.00314394
5203.91504366
5202.95522478
5202.18220143
5201.53048375
5201.10956013
5200.83809356
5253.22253451
5252.99753904
5252.6452567
5252.07622548
5251.41669757
5250.58996218
5249.65214839
5248.57291158
5247.37286329
5246.04512704
5244.59918471
5243.03761292
5241.36815616
5239.59752139
5237.73434755
5235.78765565
5233.76749955
5231.68454359
5229.55022612
5227.37651019
5225.17597523
5222.96165834
5220.7469865
5218.54569883
5216.37177865
5214.2392615
5212.1623034
5210.15468362
5208.23041748
5206.40195271
5204.68345585
5203.0836334
5201.61938925
5200.28970398
5199.12343981
5198.09628444
5197.26921727
5196.57650258
5196.12742511
5195.84978403
5252.0821234
5251.85044443
5251.48017202
5250.87956748
5250.1782821
5249.29685245
5248.29397857
5247.13824669
5245.85161205
5244.4271997
5242.87532807
5241.1990285
5239.40676954
5237.50591166
5235.50585144
5233.41637688
5231.24836412
5229.01332758
5226.72358611
5224.39200861
5222.03210979
5219.65787285
5217.28368009
5214.92425419
5212.59453722
5210.30955246
5208.08443891
5205.93392212
5203.87301969
5201.91507594
5200.07529237
5198.36306856
5196.79657407
5195.37492703
5194.12887052
5193.03325998
5192.15167514
5191.41816176
5190.94148294
5190.65954477
5250.89318422
5250.65457991
5250.26552194
5249.6319919
5248.88714386
5247.94865499
5246.87791588
5245.64239893
5244.2654816
5242.74030408
5241.07807521
5239.28232296
5237.36228967
5235.32604478
5233.1837828
5230.94612316
5228.62479789
5226.23223787
5223.78168087
5221.28696936
5218.76258575
5216.22349488
5213.68508065
5211.16304634
5208.67333775
5206.23196936
5203.85506663
5201.55833592
5199.35779888
5197.26769981
5195.30431447
5193.47773327
5191.80744734
5190.29268169
5188.96617109
5187.80186629
5186.86606122
5186.09264809
5185.58945733
5185.30555663
5249.66149773
5249.41578405
5249.00722662
5248.33956745
5247.54955091
5246.55191889
5245.41085705
5244.09269361
5242.6222956
5240.99282399
5239.21643641
5237.29718715
5235.24515122
5233.06914934
5230.78024486
5228.38992806
5225.91086066
5223.35643562
5220.74085492
5218.07897155
5215.38626848
5212.6787316
5209.97275562
5207.28506029
5204.63259955
5202.03237924
5199.50152742
5197.05671661
5194.71497337
5192.49144418
5190.403482
5188.46185975
5186.68742654
5185.07948562
5183.67285448
5182.44049743
5181.45150371
5180.63973064
5180.11156201
5179.8284226
5248.39349289
5248.14049919
5247.71184185
5247.00905177
5246.17252742
5245.11398565
5243.90052443
5242.49728642
5240.9307025
5239.19397893
5237.30027109
5235.25420911
5233.06675539
5230.74753159
5228.30851752
5225.76213097
5223.12200421
5220.40254182
5217.61896038
5214.78716385
5211.92367099
5209.04550963
5206.17010637
5203.3152012
5200.49875435
5197.73876371
5195.05334194
5192.46011779
5189.97710916
5187.6203407
5185.40824082
5183.35223451
5181.47455942
5179.77454617
5178.28917177
5176.99033791
5175.94997459
5175.10205878
5174.55094318
5174.27168007
5247.09598572
5246.83566057
5246.38643172
5245.64767827
5244.76355389
5243.64267749
5242.35515366
5240.8649165
5239.20003097
5237.35375307
5235.34030034
5233.16491257
5230.83949364
5228.3745184
5225.78293719
5223.07814565
5220.27480932
5217.38837723
5214.43513554
5211.43205647
5208.39673293
5205.34724696
5202.30207074
5199.27996161
5196.29988012
5193.38079554
5190.54178461
5187.80140049
5185.17862018
5182.69031482
5180.35596318
5178.18760399
5176.20886923
5174.41906013
5172.8573649
5171.49454434
5170.40539495
5169.52416645
5168.95259057
5168.68056507
5245.77638997
5245.50871904
5245.03856728
5244.26327657
5243.33074802
5242.14648487
5240.78367496
5239.20503385
5237.44031635
5235.48286209
5233.34799401
5231.04161203
5228.57660561
5225.96435336
5223.21882415
5220.35444629
5217.38695724
5214.3329105
5211.20968264
5208.03536574
5204.8286348
5201.60864565
5198.39491193
5195.2071996
5192.06544795
5188.98957037
5185.99956917
5183.11487775
5180.35538844
5177.73876645
5175.28550204
5173.00819336
5170.93185512
5169.05568936
5167.42112616
5165.99770778
5164.86308548
5163.95196308
5163.36280998
5163.10161999
5244.44270464
5244.16770113
5243.67633513
5242.86413345
5241.88268524
5240.63439052
5239.19554999
5237.52767132
5235.66224305
5233.59271277
5231.33556246
5228.89738903
5226.29212098
5223.5320872
5220.63233005
5217.60835407
5214.47702503
5211.25602478
5207.96387535
5204.61979341
5201.2435666
5197.85542025
5194.47590647
5191.12577962
5187.82592845
5184.5971673
5181.46037445
5178.43580628
5175.54420917
5172.80397538
5170.23655315
5167.85502791
5165.68576845
5163.72779429
5162.02479295
5160.54499477
5159.36888391
5158.43177456
5157.8282798
5157.58169016
5243.10317883
5242.82086348
5242.30824475
5241.45898059
5240.42842808
5239.11584864
5237.60071972
5235.84334167
5233.8769877
5231.69523727
5229.3157749
5226.74593268
5224.00072277
5221.09347047
5218.04033783
5214.85795383
5211.56435168
5208.17838474
5204.71974542
5201.20879881
5197.6664521
5194.11400048
5190.57301697
5187.06521689
5183.61239604
5180.23621757
5176.9583729
5173.79986922
5170.78223263
5167.92450152
5165.24901009
5162.76924755
5160.51289146
5158.47868407
5156.71256436
5155.1813547
5153.96832742
5153.00956446
5152.39521135
5152.16706812
5241.76645056
5241.47691493
5240.94305669
5240.05684721
5238.97732774
5237.60067085
5236.00953082
5234.16302002
5232.09622683
5229.80289017
5227.30193729
5224.6014726
5221.71763604
5218.66479271
5215.4602699
5212.12186181
5208.6688081
5205.12116591
5201.49981559
5197.82629724
5194.1226308
5190.41117453
5186.71449786
5183.05523992
5179.45605279
5175.93938474
5172.5276643
5169.24256527
5166.10630532
5163.1384757
5160.36220987
5157.79130686
5155.45469123
5153.35072152
5151.52756619
5149.95052896
5148.70563016
5147.72986505
5147.108303
5146.90230649
5240.44150771
5240.14485145
5239.589962
5238.66714895
5237.53914776
5236.0990458
5234.43269395
5232.49802943
5230.33198638
5227.92848469
5225.30772929
5222.47862883
5219.45848942
5216.26275428
5212.90995589
5209.41908751
5205.81063298
5202.10586739
5198.32690084
5194.49642625
5190.6375923
5186.77379367
5182.92856816
5179.12543206
5175.38783347
5171.73892957
5168.20179994
5164.79869038
5161.55241155
5158.48300502
5155.61430547
5152.96031733
5150.55113741
5148.38463152
5146.51115001
5144.8943758
5143.6229935
5142.635082
5142.01010496
5141.8297487
5239.13742179
5238.83378483
5238.25820121
5237.29938828
5236.12374176
5234.6212913
5232.8810769
5230.85987894
5228.596493
5226.08504167
5223.34703561
5220.3922166
5217.2390902
5213.90421125
5210.40734923
5206.76872813
5203.0100957
5199.15397379
5195.22369343
5191.24312381
5187.23651316
5183.22827627
5179.24287685
5175.30465437
5171.43778131
5167.66604044
5164.0130685
5160.50158027
5157.15487374
5153.99332247
5151.04136578
5148.313092
5145.83968781
5143.61840562
5141.70172934
5140.05157611
5138.7592581
5137.76388494
5137.13916112
5136.98774755
5237.86355881
5237.55307182
5236.95728748
5235.96330827
5234.74120798
5233.17795288
5231.36576816
5229.26028746
5226.90217757
5224.28578085
5221.43393473
5218.35723706
5215.07541916
5211.60617281
5207.97052769
5204.1899594
5200.28749542
5196.2869157
5192.21277527
5188.09010625
5183.94423986
5179.80057733
5175.68446041
5171.62098792
5167.63497899
5163.75075248
5159.99240341
5156.38300809
5152.94623491
5149.70267358
5146.67725887
5143.88404646
5141.35522211
5139.08731029
5137.13486409
5135.45793232
5134.15039347
5133.15232889
5132.53134291
5132.41186232
5236.62896926
5236.31176215
5235.69644507
5234.66839026
5233.40139803
5231.77934121
5229.89762409
5227.71073167
5225.26121145
5222.54363558
5219.58218442
5216.38832828
5212.98304204
5209.38516951
5205.61701573
5201.70131596
5197.66238923
5193.52526249
5189.31572147
5185.05992777
5180.78427996
5176.51511768
5172.27860705
5168.10053498
5164.00628584
5160.02062136
5156.16799293
5152.4717208
5148.9557336
5145.64070528
5142.55196254
5139.70340135
5137.1281081
5134.8217481
5132.8408717
5131.14351317
5129.82610003
5128.82950974
5128.21532231
5128.12990255
5235.44332511
5235.11944454
5234.48536939
5233.42451392
5232.11452462
5230.43609141
5228.48780265
5226.22297711
5223.68604703
5220.87181585
5217.80581751
5214.50039985
5210.97779031
5207.25798827
5203.36457561
5199.32154855
5195.15450492
5190.88971707
5186.55416551
5182.17513292
5177.78003183
5173.39609862
5169.05025502
5164.76890377
5160.57791085
5156.50238544
5152.56702542
5148.7952859
5145.21123037
5141.83553196
5138.69376419
5135.79955969
5133.18681977
5130.85022802
5128.8482828
5127.13685032
5125.81489094
5124.82381529
5124.21947606
5124.16967184
5234.3146673
5233.98414456
5233.33234059
5232.24024763
5230.88955465
5229.15761637
5227.14622407
5224.80750125
5222.18777911
5219.28208289
5216.11731218
5212.70668549
5209.07368322
5205.23944921
5201.22883263
5197.06707335
5192.78103002
5188.39819322
5183.9467107
5179.45494317
5174.95127256
5170.46377063
5166.02005007
5161.64705292
5157.37104115
5153.21737206
5149.21088396
5145.37505922
5141.73400466
5138.30822651
5135.12347512
5132.19297292
5129.55134788
5127.19214433
5125.17574967
5123.45562081
5122.13326784
5121.15016856
5120.55724949
5120.54264093
5233.25357432
5232.9161831
5232.24766884
5231.12597004
5229.73711042
5227.95488417
5225.88432245
5223.47629033
5220.7790401
5217.78778936
5214.53081609
5211.02218146
5207.28660981
5203.34635972
5199.2275235
5194.95655155
5190.56152841
5186.07111847
5181.51460047
5176.92135151
5172.32066825
5167.74139093
5163.21175301
5158.75915533
5154.41016577
5150.19028948
5146.12442847
5142.23596803
5138.54895301
5135.08362023
5131.86581706
5128.9082213
5126.2461467
5123.87186366
5121.84766871
5120.1243909
5118.80625203
5117.83406096
5117.25497566
5117.27530411
5232.26486667
5231.9204266
5231.23666396
5230.08740464
5228.66336112
5226.8344682
5224.70908783
5222.23674087
5219.46767106
5216.39723921
5213.05512718
5209.45618915
5205.62637843
5201.58901848
5197.37140778
5193.00115613
5188.50752263
5183.92029684
5179.26981895
5174.58643318
5169.90027308
5165.24088417
5160.63704345
5156.11653148
5151.70614196
5147.43144639
5143.31730744
5139.38691683
5135.66417009
5132.16890917
5128.9269975
5125.95041471
5123.27512536
5120.89190922
5118.86491032
5117.14198257
5115.83015321
5114.86848871
5114.30234772
5114.3538528
5231.36268898
5231.01052919
5230.3126498
5229.13776504
5227.68157351
5225.80985481
5223.63439664
5221.10323947
5218.26872528
5215.12625971
5211.7069618
5208.02638946
5204.11170293
5199.98721368
5195.68137262
5191.22287483
5186.64208815
5181.96985008
5177.23748742
5172.47623661
5167.71698553
5162.98990367
5158.32423321
5153.74805062
5149.28829548
5144.97051561
5140.81945445
5136.85800912
5133.10986045
5129.59433025
5126.33727703
5123.34982319
5120.66866363
5118.28290552
5116.25875231
5114.54069206
5113.2393071
5112.28994136
5111.73860471
5111.81736514
5230.54323558
5230.18301343
5229.47284837
5228.27495262
5226.79008969
5224.87969087
5222.65911554
5220.07478659
5217.1813411
5213.97407349
5210.48561202
5206.73208914
5202.74185497
5198.54010428
5194.15637995
5189.62037237
5184.96347956
5180.21749702
5175.41465777
5170.58699932
5165.76608733
5160.9826272
5156.26625804
5151.64527837
5147.14670407
5142.79599004
5138.6176946
5134.63432865
5130.86931776
5127.34130299
5124.07613377
5121.08382401
5118.40187033
5116.01722048
5113.99833241
5112.28555387
5110.99361859
5110.05213327
5109.51099895
5109.60758649
5229.83174981
5229.4628099
5228.74133488
5227.52294161
5226.01267902
5224.0678663
5221.80748394
5219.17620431
5216.2312038
5212.96740443
5209.41904861
5205.60264122
5201.54770092
5197.28016142
5192.83057756
5188.22951179
5183.50929205
5178.70256148
5173.84234748
5168.96137975
5164.09182006
5159.26479427
5154.51025778
5149.85664409
5145.33099073
5140.95857096
5136.76370633
5132.76841474
5128.99584499
5125.46385058
5122.19832793
5119.20794541
5116.53132151
5114.15287051
5112.14431912
5110.44067614
5109.16245295
5108.22958012
5107.69965519
5107.80394927
5229.20462234
5228.82676813
5228.09503777
5226.85912535
5225.32676968
5223.35188458
5221.05702935
5218.38494158
5215.39562658
5212.08325475
5208.48384576
5204.61401546
5200.50445766
5196.18168087
5191.67718448
5187.02227957
5182.2501271
5177.39410059
5172.48792292
5167.56489968
5162.6576921
5157.79779283
5153.01535352
5148.33888889
5143.79541229
5139.40998657
5135.2066094
5131.20674632
5127.43321725
5123.90283443
5120.64161637
5117.65637625
5114.98706992
5112.61465756
5110.61491228
5108.91618539
5107.64695627
5106.71622999
5106.1896811
5106.28703832
5228.71265082
5228.32814626
5227.58685498
5226.33769965
5224.78639544
5222.78591545
5220.46216572
5217.7558627
5214.7303215
5211.3784309
5207.73820034
5203.82599445
5199.67367269
5195.30808398
5190.76156644
5186.06600874
5181.25526804
5176.36329945
5171.42438372
5166.47228093
5161.540012
5156.65934605
5151.86063037
5147.17227768
5142.62127869
5138.2324193
5134.02939723
5130.03301196
5126.26588509
5122.74363444
5119.4926767
5116.51760773
5113.86059061
5111.49822173
5109.51175362
5107.82112965
5106.56356501
5105.63428751
5105.1081725
5105.17944168
5228.29908829
5227.90530486
5227.1494223
5225.88834318
5224.31996575
5222.29881704
5219.95288516
5217.22041637
5214.16806006
5210.78686781
5207.11696199
5203.17415647
5198.99150441
5194.59605303
5190.02093037
5185.2984751
5180.46313666
5175.54932841
5170.59177671
5165.62457947
5160.68101852
5155.79297197
5150.99089106
5146.30306492
5141.7561595
5137.37487568
5133.18240716
5129.19880092
5125.44631906
5121.93899799
5118.70348359
5115.74124495
5113.09653233
5110.74044551
5108.76018374
5107.06858167
5105.81106022
5104.87210038
5104.33571195
5104.35753296
5228.04972009
5227.65652032
5226.88942034
5225.62447645
5224.04302558
5222.00556184
5219.6425006
5216.88958242
5213.81747701
5210.41483037
5206.72402592
5202.75995744
5198.55676557
5194.1414299
5189.54769954
5184.80817663
5179.95773108
5175.03106745
5170.06321666
5165.08846809
5160.14024224
5155.25049535
5150.44966157
5145.76614699
5141.22615176
5136.85424923
5132.67348022
5128.70311424
5124.96538587
5121.47288228
5118.25291772
5115.30382554
5112.67260159
5110.32423508
5108.3519197
5106.65995512
5105.40010914
5104.4477229
5103.88355938
5103.8321969
5227.89225687
5227.47816256
5226.68699974
5225.41316623
5223.82193522
5221.77774612
5219.40990235
5216.65196931
5213.5764047
5210.17031009
5206.47741585
5202.51214768
5198.30947156
5193.89644752
5189.30733443
5184.57490913
5179.73432861
5174.82050228
5169.86860042
5164.91297009
5159.98704698
5155.12271249
5150.3501658
5145.69755756
5141.19111
5136.85464108
5132.7108121
5128.77795037
5125.07779649
5121.62136223
5118.43547487
5115.5150679
5112.90699925
5110.57084033
5108.59974804
5106.89267753
5105.59965045
5104.59097338
5103.94931442
5103.75052681
5098.91663734
5098.81193964
5098.68353925
5098.43382078
5098.15401518
5097.78311844
5097.36646041
5096.87866027
5096.3382236
5095.73750351
5095.08440218
5094.37855073
5093.62467691
5092.82533056
5091.98476452
5091.10690805
5090.1963597
5089.2579346
5088.29674712
5087.31833477
5086.32821208
5085.33216626
5084.33656926
5083.34748115
5082.37121246
5081.41407573
5080.48239344
5079.58224036
5078.72002493
5077.90091368
5077.13197352
5076.41588615
5075.7626885
5075.16836627
5074.65246654
5074.19470798
5073.83772439
5073.53159025
5073.35442692
5073.23928226
5098.7923349
5098.68438047
5098.55199079
5098.29522042
5098.00902175
5097.63312271
5097.21093677
5096.71826914
5096.17219136
5095.56573417
5094.90620927
5094.1935529
5093.43232559
5092.62521726
5091.77646725
5090.89008266
5089.97069581
5089.02317806
5088.05268856
5087.0648176
5086.06516928
5085.05952984
5084.05430449
5083.05566562
5082.06990956
5081.10340919
5080.16249188
5079.25326164
5078.3820764
5077.55415881
5076.77638389
5076.05165783
5075.38960743
5074.78700628
5074.26303594
5073.79862906
5073.43747235
5073.12524804
5072.94754412
5072.80726936
5098.63071404
5098.51980954
5098.38907945
5098.12214966
5097.82434443
5097.43575134
5097.00011811
5096.49460673
5095.93503456
5095.31502423
5094.64112987
5093.91348172
5093.1363664
5092.31256542
5091.44628055
5090.54160139
5089.60321927
5088.63609872
5087.64549098
5086.63712201
5085.61665044
5084.59008309
5083.56389648
5082.54435574
5081.5379588
5080.55119094
5079.5905443
5078.66228863
5077.77291398
5076.92789133
5076.13412938
5075.39494308
5074.71964229
5074.10546007
5073.57035974
5073.09466518
5072.72046343
5072.3872793
5072.1864597
5072.01190454
5098.32559357
5098.20781446
5098.06647951
5097.78324484
5097.46774485
5097.06057235
5096.60512637
5096.07936037
5095.49809566
5094.85534626
5094.15708694
5093.40360688
5092.59900725
5091.74618854
5090.84938187
5089.91281404
5088.94130755
5087.93998743
5086.91428724
5085.87010347
5084.81329213
5083.75011279
5082.68724036
5081.63115779
5080.58860785
5079.56629431
5078.57094443
5077.6090627
5076.68733065
5075.81148146
5074.98851004
5074.22207808
5073.52138049
5072.88415668
5072.32818642
5071.83416391
5071.44534304
5071.09901059
5070.89296265
5070.70958011
5097.97716961
5097.85322231
5097.70019544
5097.3993273
5097.06330333
5096.63332717
5096.15308178
5095.60114323
5094.99179903
5094.31932413
5093.58928561
5092.80206439
5091.96162884
5091.07098226
5090.13441622
5089.15631392
5088.14166879
5087.09580285
5086.02438744
5084.93355604
5083.82941824
5082.71857104
5081.60792433
5080.50426879
5079.41467789
5078.34616311
5077.30578775
5076.30038943
5075.33696471
5074.42160821
5073.56155426
5072.76084393
5072.02873699
5071.36332393
5070.78227042
5070.26630062
5069.85902956
5069.49661414
5069.27973807
5069.08800538
5097.51741031
5097.38847459
5097.22281055
5096.90337422
5096.54458809
5096.0882155
5095.57843717
5094.99419908
5094.34963584
5093.63920338
5092.86829145
5092.03738292
5091.15043036
5090.21057987
5089.22225744
5088.19005855
5087.11921439
5086.01531216
5084.88433235
5083.73270399
5082.56690685
5081.3939167
5080.22098486
5079.05531128
5077.90436871
5076.77557572
5075.67641157
5074.61412589
5073.59611072
5072.62886557
5071.71995959
5070.87381213
5070.09993563
5069.39674807
5068.78222346
5068.23729088
5067.80631081
5067.42547908
5067.19636367
5066.99934427
5096.99643867
5096.86189153
5096.68281894
5096.34351481
5095.95992422
5095.47395908
5094.93062455
5094.30899133
5093.62333983
5092.86823131
5092.04905007
5091.16638625
5090.2242671
5089.22601426
5088.17624738
5087.0798179
5085.94224749
5084.76944144
5083.56775009
5082.34396578
5081.10500073
5079.85827436
5078.61144923
5077.37221193
5076.14850697
5074.9482397
5073.7793844
5072.64968098
5071.5670061
5070.53833289
5069.57167703
5068.67187707
5067.84886945
5067.10139171
5066.44797547
5065.86972951
5065.41189834
5065.0110754
5064.76924898
5064.56952886
5096.38540971
5096.24597657
5096.05418235
5095.69459967
5095.28484543
5094.76650852
5094.18575077
5093.5215921
5092.78872673
5091.98180334
5091.10637148
5090.16317102
5089.15640967
5088.08964051
5086.96775013
5085.79590621
5084.57998476
5083.3262761
5082.04156567
5080.73308168
5079.40823951
5078.07496633
5076.74142185
5075.4158551
5074.10675639
5072.82259791
5071.57192366
5070.36303653
5069.20437012
5068.10342317
5067.06873781
5066.10559033
5065.22445658
5064.42435145
5063.72454016
5063.10618825
5062.61559332
5062.18983567
5061.93114764
5061.72712065
5095.70466391
5095.55953696
5095.35428531
5094.97290295
5094.53497632
5093.98123676
5093.35924083
5092.64774524
5091.86203246
5090.99680197
5090.05788946
5089.04621943
5087.96626338
5086.82185804
5085.61822269
5084.36089727
5083.05617196
5081.71078315
5080.33201487
5078.92759135
5077.50549775
5076.07423022
5074.64251946
5073.21924207
5071.81350449
5070.43441654
5069.09116189
5067.79267473
5066.54802162
5065.36529298
5064.2536501
5063.21886142
5062.27208068
5061.41262728
5060.66074176
5059.99761831
5059.47100711
5059.01835944
5058.74268613
5058.53565156
5094.94517293
5094.79432417
5094.57555432
5094.17130108
5093.70348261
5093.11149523
5092.4445389
5091.68095368
5090.83677283
5089.90673981
5088.89708899
5087.80897671
5086.64722117
5085.41600162
5084.12093794
5082.76800288
5081.36396431
5079.91606995
5078.43216218
5076.92052949
5075.38978626
5073.84906192
5072.30773037
5070.77536179
5069.2617484
5067.77670387
5066.33011876
5064.93162344
5063.59098494
5062.31694073
5061.11934339
5060.00448708
5058.98429819
5058.05837947
5057.24810201
5056.53455792
5055.9672364
5055.4837671
5055.188377
5054.97713105
5094.1154203
5093.95817223
5093.72498217
5093.29613197
5092.79622088
5092.16289318
5091.44718026
5090.62684648
5089.71878811
5088.71777486
5087.63052361
5086.45846073
5085.20682186
5083.88018287
5082.48462699
5081.02661795
5079.51346228
5077.95297921
5076.35363018
5074.72432626
5073.07437428
5071.41359686
5069.75208285
5068.10015298
5066.46834718
5064.86724353
5063.30750094
5061.79950532
5060.35378927
5058.97979688
5057.6881491
5056.48571961
5055.38532343
5054.38687066
5053.51306797
5052.74484717
5052.13381339
5051.61756952
5051.30202275
5051.087211
5093.21462185
5093.05064061
5092.80235486
5092.34735495
5091.81324124
5091.13556528
5090.36737828
5089.48574821
5088.50854127
5087.43054832
5086.25904631
5084.99577232
5083.64644542
5082.21609299
5080.71132298
5079.13914919
5077.50747756
5075.82476039
5074.10013543
5072.34319919
5070.56401194
5068.77314997
5066.9814743
5065.20010966
5063.44040118
5061.71374698
5060.03162861
5058.40524352
5056.84594794
5055.36394256
5053.9706863
5052.67367259
5051.48669434
5050.40996545
5049.46768579
5048.6405204
5047.98248436
5047.43095592
5047.09387041
5046.87526099
5092.24780076
5092.07656092
5091.81219619
5091.32927084
5090.75867252
5090.03358207
5089.20923434
5088.26189145
5087.2104777
5086.04979784
5084.78775334
5083.42642855
5081.97208528
5080.43025435
5078.80812766
5077.11332815
5075.35442128