/*--------------------------------*- C++ -*----------------------------------*\
| =========                 |                                                 |
| \\      /  F ield         | foam-extend: Open Source CFD                    |
|  \\    /   O peration     | Version:     4.1                                |
|   \\  /    A nd           | Web:         http://www.foam-extend.org         |
|    \\/     M anipulation  |                                                 |
\*---------------------------------------------------------------------------*/
FoamFile
{
    version     2.0;
    format      ascii;
    class       volScalarField;
    location    "0.6";
    object      pd;
}
// * * * * * * * * * * * * * * * * * * * * * * * * * * * * * * * * * * * * * //

dimensions      [1 -1 -2 0 0 0 0];

internalField   nonuniform List<scalar> 
96000
(
5343.61285575
5343.49974386
5343.36496266
5343.11355957
5342.83381248
5342.46391189
5342.04861845
5341.56210695
5341.02301424
5340.42354894
5339.77174486
5339.06720236
5338.31473247
5337.51688721
5336.67794502
5335.80184206
5334.89318218
5333.95678172
5332.99773911
5332.02157727
5331.03379
5330.04026104
5329.04722507
5328.06074297
5327.08711401
5326.13260549
5325.20349899
5324.30580924
5323.44588699
5322.6287884
5321.8615029
5321.14648732
5320.49367892
5319.89862829
5319.38087464
5318.91940347
5318.55715738
5318.24301811
5318.05717274
5317.92754039
5343.47963107
5343.34464705
5343.19193492
5342.92561068
5342.63710001
5342.2615907
5341.84173872
5341.35146669
5340.80814775
5340.20424388
5339.54735692
5338.83729971
5338.07878182
5337.27447882
5336.42868578
5335.54541173
5334.62930141
5333.68522578
5332.71832862
5331.73415905
5330.73831263
5329.73666982
5328.73551969
5327.74097677
5326.75933161
5325.79690497
5324.85997573
5323.95456888
5323.0869765
5322.26224884
5321.48719523
5320.76433566
5320.10327516
5319.49991936
5318.97370652
5318.50425545
5318.13713302
5317.81694013
5317.63573261
5317.49015228
5343.31139788
5343.15937858
5342.98889846
5342.7013789
5342.39527054
5342.00448414
5341.57057239
5341.0676233
5340.51139341
5339.89458356
5339.22399005
5338.49956013
5337.72574417
5336.90531102
5336.04253109
5335.14150149
5334.20693091
5333.24378588
5332.25730222
5331.25315396
5330.23703141
5329.21497474
5328.19336613
5327.17842741
5326.17663294
5325.19440901
5324.2381943
5323.31416628
5322.42874253
5321.58721166
5320.79642616
5320.05930689
5319.3852833
5318.77087616
5318.23499023
5317.75723707
5317.38293317
5317.05125865
5316.86164682
5316.69413189
5343.00453676
5342.83777264
5342.6458439
5342.33517858
5342.00729841
5341.59610715
5341.14200139
5340.61913443
5340.04194606
5339.40326188
5338.70922073
5337.95988054
5337.15950552
5336.31098693
5335.41863272
5334.48668141
5333.51997584
5332.52364012
5331.50310021
5330.46417015
5329.41277873
5328.35516518
5327.29794131
5326.24752414
5325.21063251
5324.19390203
5323.20400023
5322.24733614
5321.33052315
5320.45912261
5319.64010032
5318.87676629
5318.17856156
5317.54262041
5316.98793264
5316.49448582
5316.10898755
5315.76727845
5315.57546393
5315.39886978
5342.65625979
5342.48100421
5342.27166684
5341.9393984
5341.58830077
5341.15301091
5340.6738073
5340.12505963
5339.52042153
5338.85279113
5338.12781176
5337.34559456
5336.51025951
5335.62480373
5334.69359897
5333.72104354
5332.71215384
5331.67224574
5330.60698873
5329.52242368
5328.42476705
5327.32052805
5326.21658404
5325.11965127
5324.03677534
5322.97489502
5321.94101254
5320.94186917
5319.98439617
5319.0745207
5318.2194715
5317.42297387
5316.69458296
5316.03180006
5315.45351647
5314.9395236
5314.53661034
5314.17865166
5313.97459999
5313.78645185
5342.1975888
5342.01690946
5341.79257319
5341.44006653
5341.06498245
5340.60284011
5340.09422229
5339.51368006
5338.87455891
5338.16982002
5337.40486777
5336.57988985
5335.69898264
5334.76529055
5333.78332322
5332.7576939
5331.69365895
5330.59679607
5329.47308694
5328.32885775
5327.17070362
5326.00549065
5324.84044504
5323.6826852
5322.53965064
5321.41868385
5320.32720146
5319.27235335
5318.26146455
5317.30086701
5316.39812551
5315.55732975
5314.7882606
5314.08865056
5313.47753875
5312.93456445
5312.50684433
5312.1277551
5311.90707618
5311.70915852
5341.6781586
5341.49306622
5341.2549385
5340.88236415
5340.4822875
5339.99071882
5339.44900194
5338.83173722
5338.15234115
5337.40381279
5336.59151774
5335.71573641
5334.78063915
5333.78954784
5332.74716881
5331.65837474
5330.5287123
5329.36407342
5328.17081023
5326.95561842
5325.72551512
5324.48779295
5323.25009157
5322.02001589
5320.80547009
5319.61428107
5318.45435593
5317.33333327
5316.25901712
5315.23820206
5314.27888112
5313.38551779
5312.568239
5311.82493948
5311.17497561
5310.5978083
5310.14099782
5309.73808465
5309.49888184
5309.29214097
5341.06864651
5340.87998226
5340.62950388
5340.23716292
5339.81133612
5339.28797135
5338.7095334
5338.05053928
5337.32479385
5336.52534595
5335.65771802
5334.72233773
5333.72355601
5332.66493113
5331.55144099
5330.38827627
5329.18133962
5327.93690569
5326.66175901
5325.36303381
5324.04823884
5322.72516906
5321.40195852
5320.0867749
5318.78806102
5317.51420756
5316.27368684
5315.07469343
5313.92558211
5312.83365509
5311.8074024
5310.85165984
5309.97699362
5309.18139201
5308.48470851
5307.86615822
5307.3739551
5306.94215321
5306.68018316
5306.4635011
5340.38953727
5340.19683802
5339.93368845
5339.52045509
5339.06720896
5338.50925719
5337.89043848
5337.18498775
5336.40730229
5335.55046207
5334.62028339
5333.61737826
5332.54637021
5331.41110508
5330.21689706
5328.96930955
5327.67465919
5326.33966421
5324.97160498
5323.57811759
5322.16726319
5320.74740503
5319.32724352
5317.91557551
5316.52145278
5315.1539003
5313.82202603
5312.53464849
5311.3007472
5310.12819519
5309.02607011
5307.99962846
5307.06001675
5306.20534444
5305.45621251
5304.79159872
5304.26076612
5303.79821346
5303.51313776
5303.28719039
5339.6316434
5339.43476362
5339.15893903
5338.72386753
5338.24162958
5337.64636191
5336.98352097
5336.22690222
5335.39167367
5334.47094689
5333.47095558
5332.39254401
5331.24069565
5330.01960228
5328.73498219
5327.39283082
5325.99994092
5324.56354002
5323.0914628
5321.5919184
5320.07357438
5318.54543297
5317.01683145
5315.49726048
5313.99645143
5312.52413198
5311.09011366
5309.70390448
5308.3751762
5307.11242661
5305.92539604
5304.8197966
5303.80746184
5302.88661111
5302.07877263
5301.36257274
5300.78859186
5300.29165636
5299.98088083
5299.74486421
5338.80360398
5338.60192312
5338.31254138
5337.85395932
5337.34058823
5336.70496386
5335.99434637
5335.18192682
5334.28376568
5333.29298872
5332.21633716
5331.05492685
5329.8141704
5328.49865965
5327.11457859
5325.66841187
5324.16748925
5322.6196071
5321.03321318
5319.41714532
5317.78074825
5316.13371827
5314.48610182
5312.84814102
5311.23031043
5309.64310071
5308.09708961
5306.60253703
5305.16987364
5303.80828552
5302.52826042
5301.33602468
5300.24422843
5299.25123554
5298.37971873
5297.60789836
5296.98799823
5296.45496184
5296.1179722
5295.8723812
5337.90460323
5337.69773909
5337.39408443
5336.91044707
5336.3638561
5335.68489436
5334.92280969
5334.05006071
5333.08371307
5332.01690023
5330.85695139
5329.60529472
5328.26783894
5326.84962758
5325.35737122
5323.79810235
5322.17974739
5320.51073391
5318.80017656
5317.05761038
5315.29310934
5313.51712954
5311.74048368
5309.97421967
5308.22961393
5306.51797732
5304.85070931
5303.23887934
5301.69374065
5300.22522087
5298.84463324
5297.55876419
5296.38118279
5295.31039875
5294.37039289
5293.53887764
5292.86995681
5292.29852529
5291.93394368
5291.67884599
5336.9397521
5336.7272122
5336.40827837
5335.89782048
5335.31574041
5334.59039453
5333.77317908
5332.83570524
5331.79613532
5330.64760046
5329.39808515
5328.04936419
5326.60790117
5325.079242
5323.47068227
5321.78985994
5320.04535744
5318.24629071
5316.40250153
5314.52427411
5312.6224726
5310.7083607
5308.79357467
5306.89001588
5305.00981749
5303.16515699
5301.36831304
5299.6312149
5297.96599301
5296.38337944
5294.89557747
5293.50998129
5292.24118691
5291.08786422
5290.0754761
5289.18114734
5288.46109037
5287.85004122
5287.45747928
5287.19374095
5335.91172699
5335.69314419
5335.35802424
5334.81910157
5334.19936098
5333.42471383
5332.54885948
5331.54247163
5330.42489744
5329.18926281
5327.84427014
5326.39207622
5324.83975706
5323.19341288
5321.46098397
5319.65077195
5317.77207092
5315.83474305
5313.84940354
5311.8271459
5309.77967006
5307.71909993
5305.65794593
5303.60901205
5301.58533008
5299.59999909
5297.66621142
5295.79680131
5294.00483426
5292.30186997
5290.70107272
5289.21048327
5287.84580793
5286.60587514
5285.51777951
5284.55795932
5283.78492652
5283.13319125
5282.71225428
5282.44081774
5334.82526849
5334.60028286
5334.24803229
5333.67902153
5333.01949443
5332.1927448
5331.25491562
5330.17566788
5328.97561453
5327.64787671
5326.20193373
5324.640362
5322.9709063
5321.20027331
5319.33710135
5317.39041094
5315.37025541
5313.28729913
5311.15298109
5308.97926485
5306.77873019
5304.56441378
5302.34974236
5300.14845526
5297.97453534
5295.84201775
5293.76505855
5291.75743628
5289.83316575
5288.00469544
5286.28619216
5284.68636303
5283.22211859
5281.89243517
5280.72617602
5279.6990197
5278.87194348
5278.17921174
5277.73012198
5277.45251031
5333.68485248
5333.45318284
5333.08294255
5332.48235896
5331.78107495
5330.89963124
5329.89674213
5328.74099945
5327.45435999
5326.02994629
5324.47807426
5322.80177494
5321.00951722
5319.10866136
5317.10860323
5315.01913019
5312.85111804
5310.61608127
5308.32633948
5305.99476192
5303.63486343
5301.26062719
5298.88643524
5296.5270099
5294.19729307
5291.91230821
5289.68719347
5287.53667387
5285.47576748
5283.51781847
5281.67802716
5279.96579824
5278.39930431
5276.97765994
5275.7316082
5274.63599707
5273.75440385
5273.02087408
5272.54418324
5272.26227451
5332.49590827
5332.25731288
5331.86828732
5331.2347787
5330.48993257
5329.55142983
5328.48067563
5327.24514798
5325.86822597
5324.3430473
5322.68081823
5320.88506642
5318.96503454
5316.92879195
5314.7865322
5312.54887395
5310.22754942
5307.83498951
5305.38443244
5302.88972109
5300.36533785
5297.82624793
5295.28783483
5292.76580091
5290.27609237
5287.83472402
5285.45781997
5283.1610866
5280.96054599
5278.87044138
5276.90704794
5275.0804638
5273.41017902
5271.8954166
5270.56891049
5269.40460598
5268.46879341
5267.6953648
5267.19216211
5266.90829081
5331.26421655
5331.01851147
5330.60998674
5329.94234945
5329.15233535
5328.15468965
5327.01361283
5325.69543877
5324.22503619
5322.59556367
5320.81917606
5318.89992745
5316.84789312
5314.6718936
5312.38299159
5309.99267645
5307.5136098
5304.95918505
5302.34360455
5299.68172158
5296.98901914
5294.28148328
5291.57550834
5288.88781366
5286.23535323
5283.63513203
5281.10427847
5278.65946576
5276.31772011
5274.09418436
5272.00621363
5270.06459167
5268.29015995
5266.68222266
5265.27559566
5264.04324043
5263.05424
5262.24245251
5261.71427295
5261.4311618
5329.99620659
5329.74322105
5329.3145967
5328.61182894
5327.7753076
5326.71675235
5325.50327629
5324.10002765
5322.53343932
5320.79671511
5318.90300739
5316.85694628
5314.66949438
5312.35027308
5309.91126163
5307.36487715
5304.72475132
5302.00528942
5299.22170841
5296.38991238
5293.52642047
5290.64826037
5287.77285814
5284.91795401
5282.10150759
5279.34151582
5276.65609202
5274.06286568
5271.57985543
5269.22307934
5267.01097379
5264.954968
5263.07729468
5261.37728549
5259.89191625
5258.59308484
5257.55271531
5256.70478605
5256.15366121
5255.8744245
5328.69869445
5328.43837687
5327.98918132
5327.2504507
5326.36632992
5325.24544026
5323.95790177
5322.46765392
5320.80276419
5318.95648604
5316.94303363
5314.7676468
5312.44222996
5309.9772576
5307.38567908
5304.6808897
5301.87755486
5298.99112356
5296.03788251
5293.03480426
5289.99948203
5286.94999752
5283.90482245
5280.88271419
5277.90263317
5274.98354869
5272.14453611
5269.40414941
5266.78136595
5264.2930539
5261.95869774
5259.79033912
5257.8116065
5256.02180225
5254.46011336
5253.09729504
5252.00814057
5251.12689941
5250.55531286
5250.28331544
5327.37909347
5327.11142977
5326.64131173
5325.86604439
5324.93352009
5323.74924391
5322.38641954
5320.80776775
5319.04304624
5317.08559196
5314.95072454
5312.64434371
5310.17933961
5307.56709045
5304.82156419
5301.95718881
5298.98970162
5295.93565591
5292.81242892
5289.63811344
5286.43138429
5283.21139658
5279.99766407
5276.80995263
5273.66820165
5270.59232427
5267.60232186
5264.71762818
5261.95813507
5259.34150756
5256.88823827
5254.61093018
5252.53459454
5250.65843447
5249.02387805
5247.60046199
5246.46583653
5245.55470273
5244.9655369
5244.70437772
5326.04540261
5325.77040645
5325.27907461
5324.46689685
5323.48545353
5322.23714599
5320.79829117
5319.13040194
5317.26496982
5315.19543976
5312.93829024
5310.50011831
5307.89485287
5305.13482225
5302.23506859
5299.21109555
5296.07976836
5292.85876947
5289.56662148
5286.22254144
5282.8463165
5279.45817175
5276.07865952
5272.72853413
5269.42868369
5266.19992176
5263.06312752
5260.03855798
5257.14695743
5254.40671701
5251.83929119
5249.45776659
5247.28851
5245.33054211
5243.62754828
5242.14775418
5240.97164151
5240.03452214
5239.43101827
5239.18445611
5324.70587152
5324.42356362
5323.91097942
5323.0617397
5322.03119271
5320.71860061
5319.20345756
5317.44606905
5315.47971138
5313.29796145
5310.91849994
5308.34865946
5305.60345237
5302.69620364
5299.64307491
5296.460694
5293.16709401
5289.78112896
5286.32249168
5282.81154713
5279.26920218
5275.71675256
5272.17577166
5268.66797351
5265.21515269
5261.83897278
5258.56112671
5255.40262192
5252.38498242
5249.52724348
5246.85175002
5244.37198805
5242.115635
5240.08143429
5238.31532483
5236.78412177
5235.57109235
5234.61231958
5233.99796105
5233.76984063
5323.36913888
5323.07961008
5322.54578668
5321.65960214
5320.58008876
5319.20341936
5317.61226532
5315.76574411
5313.69894731
5311.40561128
5308.90465955
5306.20419673
5303.32036318
5300.26752391
5297.06300515
5293.72460036
5290.27154938
5286.72390971
5283.10256168
5279.42904543
5275.72538102
5272.01392768
5268.31725429
5264.65799774
5261.05880971
5257.54214013
5254.13041862
5250.84531824
5247.70905647
5244.74122261
5241.96495157
5239.39404873
5237.05743669
5234.95347309
5233.1303277
5231.55330201
5230.30840123
5229.33262658
5228.71106552
5228.50508342
5322.04419181
5321.74754174
5321.19268743
5320.2698998
5319.1419052
5317.70179084
5316.03542509
5314.10075018
5311.93470348
5309.53120259
5306.9104487
5304.08135015
5301.06121392
5297.86548318
5294.51268906
5291.02182444
5287.41337316
5283.70861042
5279.92964631
5276.09917429
5272.24034332
5268.37654863
5264.5313254
5260.7281895
5256.99059047
5253.34168612
5249.80455531
5246.40144275
5243.15516104
5240.08575577
5237.2170472
5234.56305866
5232.15388357
5229.98738324
5228.11391036
5226.497148
5225.22576771
5224.23785071
5223.61287807
5223.43253245
5320.74010145
5320.43647036
5319.86092225
5318.90213514
5317.7264957
5316.22403289
5314.48380467
5312.46259632
5310.1992067
5307.68775635
5304.9497519
5301.994935
5298.84181213
5295.50693761
5292.01008012
5288.37146346
5284.61283469
5280.75671573
5276.82643855
5272.84587238
5268.83926613
5264.83103272
5260.84563442
5256.90741188
5253.04053899
5249.2687987
5245.61582466
5242.10433094
5238.75762003
5235.59606887
5232.64410574
5229.91583181
5227.44243178
5225.22115686
5223.30449457
5221.65434562
5220.36203211
5219.36665937
5218.74193782
5218.59053849
5319.46623402
5319.15575274
5318.5600042
5317.56605119
5316.34395847
5314.78069095
5312.96849246
5310.86300142
5308.50488799
5305.88849225
5303.03664766
5299.95995237
5296.67813831
5293.20889648
5289.57325634
5285.79269297
5281.89023317
5277.88965695
5273.81552056
5269.69285597
5265.54699439
5261.40333424
5257.28721801
5253.22374626
5249.2377387
5245.35351113
5241.59515728
5237.98575808
5234.54898365
5231.30541431
5228.27999763
5225.48678626
5222.9579638
5220.69006176
5218.73763274
5217.06070475
5215.7531686
5214.75510345
5214.13411621
5214.01465439
5318.23164049
5317.91443853
5317.2991574
5316.27112913
5315.00414485
5313.38207548
5311.50034455
5309.31344186
5306.86391841
5304.14634325
5301.18489373
5297.99104019
5294.58575783
5290.98789015
5287.21974199
5283.30404759
5279.26512558
5275.12800327
5270.9184668
5266.6626785
5262.3870354
5258.117875
5253.88136551
5249.70329644
5245.60904718
5241.62337715
5237.77074572
5234.07447411
5230.55849865
5227.2434462
5224.15469931
5221.30613971
5218.73084807
5216.42449602
5214.44363145
5212.74628692
5211.42887808
5210.4322822
5209.8180939
5209.7326945
5317.04599222
5316.72211612
5316.08807705
5315.02724837
5313.71726703
5312.03882117
5310.09051846
5307.82568264
5305.28874932
5302.47451874
5299.40852229
5296.10310739
5292.58050181
5288.86070508
5284.96729852
5280.92427715
5276.75723875
5272.49245644
5268.15690995
5263.77788237
5259.38278645
5254.99885793
5250.65301715
5246.37166575
5242.18066927
5238.10514179
5234.16978123
5230.3980455
5226.8139726
5223.43827212
5220.29649869
5217.40228714
5214.78954538
5212.45296093
5210.45103011
5208.73961587
5207.41766449
5206.42658899
5205.82225153
5205.77246396
5315.91732855
5315.58681099
5314.9350431
5313.84297703
5312.49229161
5310.76034052
5308.74893398
5306.41020075
5303.79047498
5300.88477922
5297.72001068
5294.30938703
5290.67638901
5286.84216069
5282.83155021
5278.66979705
5274.38375997
5270.00092921
5265.54945196
5261.0576896
5256.55402583
5252.06653072
5247.62281197
5243.24981072
5238.97379895
5234.82013822
5230.81363313
5226.9777976
5223.33674052
5219.91096471
5216.72619508
5213.79567982
5211.15405625
5208.79485916
5206.77848533
5205.05837642
5203.73603366
5202.75294172
5202.16002739
5202.14543379
5314.85622871
5314.51884413
5313.85036579
5312.72869379
5311.33984116
5309.5576018
5307.48702529
5305.07898226
5302.38172836
5299.39047797
5296.13350692
5292.62487555
5288.88930835
5284.94906411
5280.83023438
5276.55926947
5272.16425363
5267.67384982
5263.11733794
5258.52409699
5253.92342121
5249.3441471
5244.81450961
5240.36191465
5236.01292959
5231.79304337
5227.72717061
5223.83870295
5220.1516861
5216.68633666
5213.46852058
5210.5109218
5207.8488475
5205.47456607
5203.45039432
5201.72713708
5200.40901263
5199.43683079
5198.8577518
5198.8780968
5313.86751825
5313.52308214
5312.83935539
5311.69012271
5310.26608568
5308.43717926
5306.31178356
5303.83942494
5301.07035136
5297.99992003
5294.65781026
5291.05887561
5287.22906963
5283.19171603
5278.97411299
5274.60386932
5270.11024336
5265.52302538
5260.8725563
5256.18917865
5251.50302401
5246.84363886
5242.23979934
5237.71928986
5233.30890211
5229.03419514
5224.92004672
5220.98964807
5217.26688854
5213.77161196
5210.52969444
5207.55310918
5204.87781813
5202.49461346
5200.46763039
5198.74471741
5197.43290946
5196.47125674
5195.90512225
5195.95664479
5312.96533828
5312.61318126
5311.91533607
5310.74047817
5309.28429297
5307.41256035
5305.2370867
5302.70591742
5299.87139847
5296.72893405
5293.30963877
5289.62906998
5285.71438888
5281.58990681
5277.28407414
5272.82558493
5268.24480702
5263.57257922
5258.84022615
5254.07898139
5249.31973639
5244.5926604
5239.9269912
5235.35080917
5230.89105394
5226.57326533
5222.42219102
5218.4607312
5214.71256551
5211.19702717
5207.93996856
5204.95250999
5202.27134961
5199.88561129
5197.8614667
5196.14342192
5194.84206163
5193.89270946
5193.34137913
5193.42015737
5312.14588233
5311.78566208
5311.07553062
5309.87766158
5308.39280491
5306.48239194
5304.26180124
5301.67746037
5298.78400983
5295.57674327
5292.08828443
5288.33476533
5284.34453724
5280.14279448
5275.75907893
5271.22308091
5266.56619815
5261.82022571
5257.01739681
5252.18974752
5247.36884168
5242.58538505
5237.86901923
5233.24804503
5228.7494658
5224.39873641
5220.22042915
5216.23704625
5212.47201785
5208.9439951
5205.67881876
5202.68650331
5200.00455463
5197.61991726
5195.60104135
5193.88828878
5192.59637471
5191.65490188
5191.11377486
5191.2103802
5311.43439355
5311.06545446
5310.34401267
5309.12564538
5307.61538791
5305.67056153
5303.41016411
5300.77887334
5297.83386768
5294.57006815
5291.02171519
5287.20531221
5283.15037821
5278.8828471
5274.43327291
5269.83221772
5265.11200896
5260.30528861
5255.44508496
5250.5641283
5245.69457717
5240.86755429
5236.11302073
5231.4594147
5226.93375347
5222.56131429
5218.36643867
5214.37113476
5210.59854152
5207.06653606
5203.80100617
5200.81061774
5198.13399867
5195.75555863
5193.74703088
5192.04341606
5190.76521048
5189.83234987
5189.30243234
5189.40674317
5310.80726148
5310.42940722
5309.69770796
5308.46181973
5306.92946636
5304.95456825
5302.65969828
5299.98759963
5296.99827934
5293.68590724
5290.0865011
5286.21667565
5282.10712469
5277.78435685
5273.27987114
5268.62497779
5263.85283713
5258.99682209
5254.09065531
5249.16764236
5244.26044376
5239.40055113
5234.61811613
5229.94165172
5225.3981688
5221.01272934
5216.80933735
5212.80946223
5209.03592017
5205.5055202
5202.24428826
5199.25904442
5196.58973953
5194.21735052
5192.21763162
5190.51892573
5189.24971351
5188.3189993
5187.79245496
5187.88982942
5310.315284
5309.93077648
5309.1895132
5307.9403784
5306.38907306
5304.38857955
5302.06481504
5299.3585013
5296.33295505
5292.98106431
5289.34083671
5285.42863604
5281.27632182
5276.91074298
5272.36423704
5267.66869175
5262.857964
5257.9660082
5253.02710423
5248.07501209
5243.14275319
5238.26209621
5233.46338584
5228.77503037
5224.22402136
5219.83515172
5215.63212095
5211.63572307
5207.86857991
5204.34631455
5201.09534573
5198.12027485
5195.46326854
5193.10091885
5191.11447209
5189.42386728
5188.16631922
5187.2370512
5186.7109402
5186.78222791
5309.90171156
5309.50792196
5308.75206276
5307.49100002
5305.92261789
5303.90145409
5301.55550673
5298.82302704
5295.77066558
5292.38947307
5288.71957077
5284.77677107
5280.59412708
5276.19868647
5271.62357662
5266.90113519
5262.06581107
5257.15201638
5252.1944772
5247.22729256
5242.28374403
5237.3957069
5232.59362999
5227.9058032
5223.35889185
5218.97759627
5214.78511471
5210.8014957
5207.04899971
5203.54166502
5200.30614547
5197.34390663
5194.69920629
5192.34313753
5190.36289483
5188.67131222
5187.41380507
5186.47485468
5185.93847081
5185.96031121
5309.65233878
5309.25913322
5308.49204352
5307.22711242
5305.6456535
5303.60817355
5301.24509654
5298.49216669
5295.42005404
5292.01740816
5288.32660946
5284.3625502
5280.15936952
5275.74404573
5271.15032853
5266.41082065
5261.56038865
5256.63373539
5251.66589954
5246.69116816
5241.74295922
5236.8532218
5232.05239094
5227.36887803
5222.82887918
5218.4569639
5214.27617945
5210.30580056
5206.56806252
5203.07554752
5199.85557938
5196.90648698
5194.27526994
5191.92692092
5189.95462414
5188.26267719
5187.00284526
5186.05046774
5185.48630753
5185.43496889
5309.49492303
5309.08082471
5308.28967119
5307.01584184
5305.42460315
5303.38040149
5301.01254629
5298.25460583
5295.17903815
5291.77294394
5288.08005319
5284.1147905
5279.9121218
5275.49910754
5270.91000566
5266.17759227
5261.33702464
5256.42321117
5251.4713212
5246.51570221
5241.58979063
5236.72546495
5231.95292066
5227.30031065
5222.7938597
5218.45738372
5214.31354409
5210.38067094
5206.68050765
5203.22406731
5200.03817332
5197.11776875
5194.50970905
5192.1735618
5190.20248366
5188.49542601
5187.20241038
5186.19373963
5185.55208285
5185.35332245
5343.72487006
5343.6201738
5343.4918302
5343.24214101
5342.96231505
5342.5913641
5342.17465066
5341.68680729
5341.14634081
5340.54559944
5339.89247885
5339.18660902
5338.43272492
5337.63337607
5336.7928081
5335.91494926
5335.0043979
5334.06596905
5333.10477727
5332.12635929
5331.13623094
5330.14018223
5329.14458302
5328.15549312
5327.17922334
5326.2220858
5325.29040276
5324.39024831
5323.52803086
5322.70891799
5321.93997747
5321.22389055
5320.57069487
5319.97638843
5319.46050987
5319.00276727
5318.64579143
5318.3396571
5318.16250235
5318.04747449
5343.60057232
5343.4926636
5343.36033996
5343.10359483
5342.81736998
5342.44141735
5342.01917855
5341.52647183
5340.98036754
5340.37389006
5339.71434776
5339.00167729
5338.24044015
5337.43332619
5336.58457354
5335.69818693
5334.77879712
5333.83127519
5332.86078075
5331.87290481
5330.87325175
5329.86760835
5328.8623806
5327.86374055
5326.87798407
5325.91148358
5324.97056593
5324.06133448
5323.19014707
5322.3622269
5321.58445056
5320.85972797
5320.19768958
5319.59510555
5319.07115248
5318.60675709
5318.24560224
5317.93336799
5317.75565158
5317.61547873
5343.43901724
5343.32816881
5343.1975098
5342.93060884
5342.63278225
5342.24414178
5341.80846195
5341.30291682
5340.74332224
5340.12329509
5339.44938654
5338.72172728
5337.94460492
5337.12080058
5336.25451426
5335.34983368
5334.41144913
5333.44432512
5332.45371344
5331.44534068
5330.424866
5329.39829657
5328.37210903
5327.35256828
5326.34617194
5325.3594048
5324.39875837
5323.47050187
5322.58112505
5321.73609942
5320.94233535
5320.2031506
5319.52785775
5318.91368921
5318.37860239
5317.9029127
5317.52870054
5317.19548987
5316.99463774
5316.82015165
5343.13394006
5343.01621533
5342.87495499
5342.59175463
5342.2762394
5341.86902494
5341.41353663
5340.88774032
5340.30645629
5339.66369297
5338.96542216
5338.21193335
5337.40732863
5336.55450802
5335.65770093
5334.72113246
5333.7496242
5332.74830129
5331.72259794
5330.6784113
5329.62159787
5328.5584175
5327.49554502
5326.43946319
5325.39691442
5324.37460189
5323.37925225
5322.41736938
5321.49563439
5320.61978087
5319.7968057
5319.03037327
5318.32968185
5317.69246991
5317.13651015
5316.64248694
5316.2536453
5315.90727197
5315.70117887
5315.51784892
5342.78551966
5342.66162137
5342.5086728
5342.2078442
5341.87180963
5341.44179415
5340.96150844
5340.40954137
5339.80017966
5339.12769268
5338.39764441
5337.61041598
5336.76997663
5335.87932921
5334.94276357
5333.96466132
5332.95001499
5331.9041468
5330.83272878
5329.74189511
5328.63775587
5327.52690822
5326.41626193
5325.31260747
5324.22301788
5323.15450405
5322.11412865
5321.10872858
5320.14529985
5319.22993737
5318.36987752
5317.56916463
5316.83706214
5316.17165981
5315.59061559
5315.07464127
5314.66734225
5314.30487696
5314.08794831
5313.89626569
5342.32573389
5342.19684946
5342.03126853
5341.71187566
5341.35308125
5340.8966702
5340.38685188
5339.80258571
5339.15800568
5338.447562
5337.67664121
5336.84572636
5335.9587708
5335.01892008
5334.03059856
5332.99840008
5331.92755504
5330.82365083
5329.69266865
5328.54103824
5327.37523986
5326.20224939
5325.02931799
5323.8636454
5322.71270384
5321.5839113
5320.48474638
5319.4224578
5318.40443695
5317.4371836
5316.52826906
5315.68211671
5314.90824273
5314.20506512
5313.59054954
5313.04561167
5312.6146012
5312.23371511
5312.00454181
5311.80757949
5341.80473597
5341.67024552
5341.49126006
5341.15200171
5340.76840371
5340.28240007
5339.73902536
5339.11736412
5338.4316961
5337.67657677
5336.85738715
5335.97471742
5335.03259541
5334.03434278
5332.98457749
5331.88814866
5330.75057748
5329.57776952
5328.37607569
5327.15228889
5325.91332195
5324.66659494
5323.41977019
5322.18053385
5320.95682998
5319.75656306
5318.58770675
5317.45799961
5316.37531775
5315.34663465
5314.37996812
5313.48016131
5312.65715446
5311.90968575
5311.25627837
5310.67802739
5310.22016552
5309.81928654
5309.57739962
5309.37774271
5341.19369337
5341.0543214
5340.86261649
5340.50308074
5340.09331931
5339.57494369
5338.99414564
5338.32995902
5337.59707706
5336.7901432
5335.91470333
5334.97149642
5333.96473229
5332.89796402
5331.77607596
5330.6042334
5329.38831132
5328.13460045
5326.84988726
5325.54140065
5324.2165567
5322.88328298
5321.5497389
5320.22417301
5318.91507518
5317.63091692
5316.38024152
5315.17135072
5314.01267684
5312.91171885
5311.87702086
5310.91386395
5310.03272916
5309.23263271
5308.53283061
5307.91447365
5307.42384811
5306.99803418
5306.73928361
5306.53532444
5340.51294521
5340.36787881
5340.16271737
5339.78138247
5339.34344862
5338.78967008
5338.16763377
5337.45611034
5336.67038131
5335.80514077
5334.86622084
5333.85454496
5332.7745865
5331.63018266
5330.42655041
5329.16922679
5327.86450103
5326.51911001
5325.14033887
5323.73591291
5322.31381777
5320.88255006
5319.45083972
5318.02756308
5316.62182591
5315.2427378
5313.89948202
5312.60099107
5311.35633005
5310.17358963
5309.06193316
5308.02713366
5307.08035025
5306.2209044
5305.46902816
5304.8058993
5304.27925752
5303.82655389
5303.55081849
5303.34385329
5339.75345229
5339.6026609
5339.38398178
5338.97977657
5338.51195106
5337.9199246
5337.25292789
5336.48931501
5335.64511841
5334.71507587
5333.70541828
5332.61730171
5331.45554486
5330.2243271
5328.9292666
5327.5763336
5326.17229487
5324.72439889
5323.24048831
5321.72885321
5320.19810886
5318.65738454
5317.11605363
5315.58368589
5314.07007299
5312.58502791
5311.13844086
5309.73994162
5308.39929489
5307.12523847
5305.92762715
5304.81275948
5303.79256721
5302.866655
5302.05638624
5301.34283638
5300.77548432
5300.29195967
5299.9965097
5299.7853328
5338.92369026
5338.76649786
5338.53339945
5338.10459818
5337.60468058
5336.9713139
5336.2555607
5335.43519948
5334.52712581
5333.52610364
5332.43884634
5331.26678033
5330.01514167
5328.68850519
5327.29295237
5325.83494537
5324.3217898
5322.76130536
5321.16195434
5319.53264869
5317.882696
5316.2219188
5314.56040565
5312.90847673
5311.27667139
5309.67556699
5308.11582178
5306.60782127
5305.16209669
5303.78809168
5302.49642959
5301.29398873
5300.19358941
5299.19514277
5298.3213483
5297.55312161
5296.94205751
5296.42575904
5296.11015447
5295.89541168
5338.02287543
5337.85895035
5337.61075776
5337.15580805
5336.62168871
5335.94397411
5335.17574708
5334.29408992
5333.31686821
5332.23886704
5331.06736006
5329.80408396
5328.45475794
5327.02440862
5325.51964211
5323.9474705
5322.31579919
5320.63308095
5318.9084545
5317.15151717
5315.37232962
5313.5814681
5311.78979337
5310.00842974
5308.24872167
5306.52206662
5304.83994532
5303.21355443
5301.65424989
5300.1722315
5298.77896058
5297.4819356
5296.29495487
5295.21823255
5294.27596083
5293.44878977
5292.79072395
5292.23914177
5291.90199902
5291.6834598
5337.05603582
5336.88485311
5336.62058342
5336.13770978
5335.56710698
5334.84197846
5334.0175911
5333.07022159
5332.01879372
5330.8581065
5329.59605793
5328.23473182
5326.78039017
5325.23856299
5323.61644023
5321.92164326
5320.16273703
5318.34886563
5316.4899023