/*--------------------------------*- C++ -*----------------------------------*\
| =========                 |                                                 |
| \\      /  F ield         | foam-extend: Open Source CFD                    |
|  \\    /   O peration     | Version:     4.1                                |
|   \\  /    A nd           | Web:         http://www.foam-extend.org         |
|    \\/     M anipulation  |                                                 |
\*---------------------------------------------------------------------------*/
FoamFile
{
    version     2.0;
    format      ascii;
    class       volScalarField;
    location    "0.7";
    object      alpha1;
}
// * * * * * * * * * * * * * * * * * * * * * * * * * * * * * * * * * * * * * //

dimensions      [0 0 0 0 0 0 0];

internalField   nonuniform List<scalar> 
96000
(
0.999998975347
0.999998975976
0.999999140962
0.999999276811
0.999999224828
0.99999899369
0.999998764389
0.999998581023
0.999998449037
0.999998357885
0.999998270944
0.99999816237
0.999998117349
0.999998119294
0.999998117313
0.999998108195
0.999998096883
0.999998083986
0.999998059417
0.999998020313
0.999997996835
0.999997984826
0.999997964705
0.999997950553
0.999997943274
0.999997937153
0.999997931821
0.999997921378
0.999997904003
0.999997885483
0.999997874608
0.999997871083
0.99999785907
0.999997873819
0.999997982729
0.999998040259
0.999998059689
0.999998045141
0.999998060013
0.999998493277
0.999998988136
0.999999069932
0.999999305656
0.999999421293
0.99999932047
0.99999908518
0.999998845279
0.99999866385
0.99999854129
0.999998449742
0.999998369664
0.99999830467
0.999998260187
0.999998236019
0.999998225821
0.999998218942
0.999998206904
0.999998187438
0.999998163951
0.999998139701
0.999998115393
0.999998094942
0.999998081265
0.999998072407
0.999998067113
0.999998062547
0.99999805459
0.999998044089
0.999998027606
0.999998005506
0.999997985651
0.999997983268
0.999998012403
0.999998068423
0.999998128284
0.999998167364
0.99999816419
0.999998109772
0.999998111161
0.99999856245
0.999999185754
0.999999349298
0.999999623164
0.999999747077
0.999999655804
0.999999440929
0.999999220793
0.999999056707
0.999998948503
0.999998869315
0.999998802837
0.99999875022
0.999998716918
0.99999870159
0.999998695803
0.999998690009
0.999998678881
0.9999986623
0.999998642854
0.999998623431
0.999998606335
0.999998593754
0.99999858636
0.999998582986
0.999998581936
0.999998581242
0.999998578246
0.999998569157
0.999998552592
0.999998530358
0.999998509922
0.99999850236
0.99999852222
0.999998567296
0.999998613189
0.999998629119
0.999998589332
0.999998474851
0.999998351871
0.999998738335
0.999999375636
0.999999537748
0.999999823171
0.999999969858
0.999999902617
0.999999707999
0.999999502888
0.999999349772
0.999999252643
0.999999186351
0.999999132565
0.999999091168
0.99999906743
0.999999059894
0.999999059941
0.999999058689
0.999999051275
0.999999038082
0.999999022366
0.999999007444
0.999998995756
0.999998988709
0.999998986186
0.999998987048
0.999998989704
0.999998991365
0.999998989119
0.999998979784
0.999998961091
0.999998934169
0.999998906926
0.999998892531
0.999998906791
0.999998947236
0.999998984478
0.999998983226
0.999998907975
0.999998742153
0.999998571844
0.999998856511
0.999999430076
0.999999546008
0.999999839607
1.00000000858
0.999999966172
0.999999778719
0.999999582935
0.999999437884
0.999999348047
0.999999291592
0.999999247072
0.999999212654
0.999999194893
0.999999193923
0.999999200612
0.99999920447
0.999999200561
0.999999190172
0.999999177108
0.999999165053
0.999999156898
0.999999153894
0.999999155094
0.999999159633
0.999999165496
0.999999170032
0.999999169841
0.999999160482
0.999999139813
0.999999108106
0.999999073385
0.999999053262
0.999999065204
0.999999107137
0.999999147146
0.999999117066
0.999998985604
0.999998776301
0.999998601689
0.999998830822
0.999999307782
0.999999442369
0.999999754093
0.99999993776
0.999999903552
0.999999717715
0.999999519853
0.999999373951
0.999999286174
0.999999234134
0.999999194499
0.999999162604
0.999999145417
0.999999147257
0.999999158987
0.999999165182
0.999999162435
0.999999152156
0.999999137345
0.999999121003
0.999999107447
0.99999910181
0.999999102034
0.99999910566
0.999999112023
0.999999117481
0.99999911942
0.99999910786
0.999999077302
0.999999030115
0.999998976212
0.999998937484
0.999998937802
0.999998980937
0.999999024364
0.999998999106
0.999998865219
0.999998635925
0.999998413903
0.99999871341
0.999999176514
0.99999934351
0.99999967193
0.999999862366
0.999999829156
0.999999642236
0.999999439988
0.999999291105
0.999999203269
0.999999152432
0.999999113089
0.999999079145
0.999999069456
0.999999073049
0.999999079828
0.999999087341
0.999999084
0.999999069115
0.999999053199
0.999999044571
0.999999042493
0.999999040165
0.999999037489
0.999999035146
0.999999029961
0.999999021775
0.9999990073
0.999998991097
0.99999895724
0.999998901192
0.999998834551
0.999998776909
0.999998761476
0.999998811121
0.999998870557
0.999998853252
0.999998726551
0.999998494238
0.999998239992
0.999998614514
0.999999144874
0.999999294554
0.999999632637
0.999999826603
0.999999793678
0.999999605853
0.999999401341
0.999999250749
0.999999168938
0.999999119382
0.9999990811
0.999999068479
0.999999068491
0.999999071061
0.99999907309
0.99999907321
0.999999070034
0.99999906358
0.999999053512
0.999999047618
0.999999045538
0.999999042784
0.999999039799
0.999999037066
0.999999031617
0.999999019637
0.999998997011
0.999998964823
0.999998917945
0.999998854477
0.999998788222
0.999998744427
0.999998727567
0.999998742358
0.999998777182
0.999998765027
0.999998646528
0.999998417127
0.99999819679
0.999998564804
0.999999122161
0.999999275963
0.999999616771
0.999999814961
0.999999783464
0.999999593726
0.99999939019
0.999999241444
0.999999162025
0.99999911657
0.999999081197
0.999999070307
0.99999907464
0.999999081451
0.999999086119
0.999999087307
0.999999084724
0.999999080033
0.999999072891
0.999999063619
0.999999058221
0.999999052978
0.99999905044
0.999999049103
0.99999904702
0.999999040098
0.999999020704
0.999998984346
0.999998932965
0.999998866336
0.999998794897
0.999998747241
0.999998733019
0.999998744414
0.99999875894
0.999998747463
0.999998630269
0.999998404774
0.999998218334
0.999998560169
0.99999908863
0.999999248182
0.999999589709
0.999999792621
0.999999764505
0.999999573836
0.999999372569
0.999999226743
0.999999147854
0.999999107525
0.999999079182
0.999999061681
0.999999064381
0.999999076459
0.999999089845
0.99999909806
0.999999096113
0.999999083309
0.999999077346
0.99999907245
0.999999065779
0.999999061006
0.999999059284
0.999999058273
0.999999055166
0.999999048912
0.999999035555
0.999999002073
0.999998952581
0.99999888404
0.99999880285
0.999998743573
0.999998726773
0.99999874407
0.999998773796
0.999998758147
0.999998636283
0.99999841571
0.999998236109
0.999998573508
0.999999058236
0.999999192
0.999999535732
0.999999744307
0.999999720786
0.999999530652
0.999999330807
0.999999186994
0.999999110703
0.999999075071
0.999999054285
0.999999041333
0.999999042046
0.999999058312
0.999999078587
0.999999091443
0.99999909243
0.999999082355
0.999999070498
0.999999063014
0.999999057031
0.999999054171
0.999999053775
0.999999054375
0.999999051692
0.99999904379
0.999999028483
0.999999002131
0.999998955429
0.999998883851
0.999998799257
0.999998733474
0.999998709892
0.999998734144
0.999998777877
0.99999875493
0.99999863141
0.999998415338
0.999998189525
0.999998580247
0.999998989063
0.999999110467
0.999999461555
0.999999676828
0.999999658791
0.999999470851
0.999999272009
0.999999128975
0.999999055986
0.99999902635
0.999999008274
0.999999000051
0.999999007609
0.999999028546
0.999999050856
0.999999065103
0.999999067937
0.999999061851
0.999999050341
0.999999039898
0.999999034318
0.999999033843
0.999999035737
0.999999037214
0.999999035225
0.999999026418
0.999999007545
0.999998980346
0.999998931865
0.999998860026
0.999998777023
0.999998708146
0.999998687503
0.999998721358
0.999998752946
0.999998729603
0.999998611423
0.999998396411
0.999998173531
0.999998574059
0.999998892216
0.999999020964
0.999999381204
0.999999603998
0.999999592601
0.999999407898
0.999999210693
0.999999069328
0.99999899968
0.999998973507
0.999998960262
0.99999895765
0.999998969877
0.999998993502
0.999999018035
0.999999032892
0.999999036137
0.999999032055
0.999999024137
0.999999015492
0.999999010899
0.999999012589
0.999999016123
0.999999016498
0.999999014066
0.999999004254
0.999998983487
0.999998951252
0.999998898036
0.999998820997
0.999998738244
0.999998677178
0.999998651343
0.999998687472
0.999998717768
0.999998700186
0.999998588776
0.999998376538
0.999998193515
0.999998568067
0.999998802728
0.999998935314
0.99999930391
0.999999534721
0.999999530935
0.999999349713
0.999999155006
0.999999015913
0.999998949664
0.999998928047
0.999998920193
0.999998922383
0.999998937818
0.999998963323
0.999998989184
0.999999006614
0.999999012404
0.999999009574
0.999999002259
0.999998995563
0.99999899386
0.999998995676
0.999998997107
0.999998997635
0.999998995069
0.999998983463
0.999998963199
0.999998929429
0.999998870325
0.999998788197
0.999998709541
0.999998651327
0.999998604436
0.999998635431
0.999998697034
0.999998685819
0.999998577965
0.999998369706
0.999998218288
0.999998571279
0.999998726474
0.999998855458
0.99999923091
0.999999469913
0.999999474265
0.999999296165
0.999999104286
0.999998967478
0.999998905172
0.999998888682
0.999998884938
0.999998890219
0.999998908723
0.999998935776
0.999998963345
0.999998985025
0.99999899352
0.999998989421
0.999998981254
0.999998975961
0.999998977601
0.999998980215
0.99999898106
0.999998983694
0.999998981832
0.99999896995
0.99999895005
0.999998912499
0.999998850364
0.999998776181
0.999998695167
0.999998606148
0.999998601457
0.99999862577
0.999998694947
0.999998687919
0.999998583617
0.999998379593
0.999998242951
0.999998589828
0.999998655432
0.999998778107
0.999999159207
0.999999406185
0.999999418741
0.999999243386
0.99999905411
0.999998919457
0.999998860735
0.999998847807
0.999998847458
0.999998855449
0.999998876173
0.999998906538
0.999998936503
0.999998958255
0.999998967173
0.999998964105
0.99999895889
0.999998956117
0.999998957417
0.99999896244
0.999998968229
0.999998969976
0.999998965707
0.999998959089
0.999998938276
0.99999889496
0.999998837615
0.999998769055
0.999998669738
0.999998594756
0.999998605705
0.999998640594
0.999998705715
0.999998701008
0.999998604097
0.999998406423
0.999998269533
0.999998624591
0.999998582171
0.999998699905
0.999999086219
0.999999340779
0.999999361363
0.999999188629
0.999999001487
0.999998868786
0.999998812405
0.999998802393
0.999998804971
0.999998815616
0.999998838645
0.99999887226
0.999998903962
0.999998923603
0.99999893381
0.999998934913
0.999998932727
0.999998932156
0.999998932964
0.99999894081
0.999998950556
0.999998948633
0.999998942147
0.999998937534
0.999998914837
0.999998873906
0.999998821178
0.999998749245
0.999998639353
0.999998596435
0.999998612972
0.999998656583
0.999998715405
0.999998720524
0.999998634606
0.999998445825
0.999998304011
0.999998668164
0.999998506222
0.999998620374
0.999999011791
0.999999273657
0.999999302251
0.999999132187
0.999998946843
0.999998815345
0.999998760838
0.999998754304
0.99999875945
0.999998772914
0.999998798146
0.999998832251
0.999998866884
0.999998889816
0.999998899617
0.999998902473
0.999998903145
0.999998904991
0.999998908471
0.999998916208
0.999998923599
0.999998924975
0.999998921644
0.999998901449
0.999998871017
0.999998842296
0.999998808515
0.999998718597
0.999998597514
0.999998602525
0.999998623285
0.999998669114
0.999998719164
0.999998746998
0.999998669357
0.999998490982
0.999998366988
0.99999871243
0.999998432343
0.999998540959
0.999998937254
0.999999206393
0.99999924336
0.999999075988
0.999998892598
0.999998761312
0.999998709146
0.999998706557
0.999998713698
0.999998729917
0.999998757941
0.999998793459
0.999998829705
0.99999885746
0.99999886908
0.999998873746
0.999998876608
0.999998878799
0.999998885688
0.999998895658
0.999998901638
0.999998908621
0.999998906738
0.99999888102
0.999998844177
0.999998811228
0.999998790555
0.999998681723
0.999998600354
0.999998609893
0.99999863185
0.99999868029
0.999998742485
0.999998781084
0.99999870308
0.999998533993
0.999998446924
0.999998754709
0.999998361088
0.999998461985
0.999998863514
0.99999914032
0.999999186438
0.999999021798
0.999998840865
0.999998708797
0.999998659431
0.999998662254
0.999998672255
0.999998689131
0.99999872016
0.999998760475
0.999998796849
0.999998825094
0.999998843786
0.999998851767
0.999998856146
0.999998861427
0.999998872486
0.999998884814
0.999998891938
0.999998894343
0.99999889198
0.999998886692
0.999998856805
0.999998814486
0.999998767991
0.999998674276
0.999998611367
0.999998615007
0.999998640001
0.999998697549
0.999998776806
0.999998806235
0.999998736609
0.999998574661
0.999998455246
0.999998802761
0.999998286509
0.999998383305
0.999998791526
0.999999076556
0.999999132554
0.999998970408
0.999998792062
0.999998660079
0.999998613298
0.999998619338
0.999998633769
0.999998653142
0.999998686621
0.999998729127
0.999998768193
0.999998800036
0.999998823015
0.999998833054
0.999998839283
0.999998851935
0.999998869656
0.999998881041
0.999998887033
0.999998887645
0.999998888371
0.999998887923
0.99999886707
0.999998826255
0.999998765743
0.999998694631
0.999998617305
0.999998616994
0.999998648996
0.999998717457
0.999998794896
0.999998813395
0.999998771853
0.999998622768
0.999998455996
0.999998865051
0.999998207709
0.999998307312
0.999998722349
0.999999015616
0.999999081693
0.999998921449
0.999998745115
0.999998614594
0.999998569824
0.999998579104
0.999998595019
0.999998618757
0.999998655392
0.999998697954
0.999998743576
0.999998781209
0.999998802724
0.999998815818
0.999998829114
0.999998848425
0.999998866584
0.999998877951
0.999998886921
0.999998896914
0.999998901195
0.999998883614
0.99999885748
0.99999883492
0.999998776076
0.99999867911
0.99999862114
0.999998623002
0.999998654309
0.9999987311
0.999998814615
0.999998840855
0.999998819968
0.999998686094
0.999998551369
0.999998939731
0.999998133297
0.999998235248
0.999998655962
0.999998956787
0.999999032596
0.999998873922
0.999998699187
0.99999856937
0.999998526457
0.999998539604
0.999998556379
0.999998582594
0.999998621306
0.999998668452
0.999998719244
0.999998758017
0.999998782264
0.999998801855
0.999998823419
0.999998844084
0.999998857676
0.999998872276
0.999998898456
0.999998921262
0.99999891356
0.999998878739
0.999998849925
0.999998841837
0.999998791633
0.999998648695
0.999998629829
0.999998637216
0.999998656498
0.999998735535
0.999998862491
0.99999892648
0.999998883911
0.999998738656
0.999998653862
0.999998980315
0.999998073067
0.999998166353
0.999998591403
0.99999889956
0.999998984503
0.999998826968
0.999998653304
0.999998523652
0.999998481609
0.999998496406
0.999998517034
0.99999854433
0.999998584693
0.999998637847
0.999998689812
0.999998729834
0.999998761004
0.999998789242
0.999998813461
0.999998832031
0.999998846099
0.9999988743
0.999998916011
0.99999893194
0.999998903164
0.99999886312
0.999998841126
0.999998833357
0.999998811902
0.9999987154
0.999998642927
0.999998631881
0.999998669579
0.999998723821
0.999998829462
0.999999006997
0.999998936927
0.999998764348
0.999998788003
0.999998972758
0.999998015459
0.999998099303
0.999998528849
0.999998843897
0.999998937348
0.999998780245
0.999998607288
0.999998477196
0.999998434314
0.999998451369
0.99999847684
0.999998503779
0.999998545436
0.999998602426
0.99999865633
0.999998701585
0.999998739733
0.999998771543
0.999998795296
0.999998817464
0.999998845408
0.999998892767
0.999998921138
0.999998908021
0.999998883284
0.999998869086
0.99999885577
0.999998797051
0.999998739949
0.999998820847
0.999998629297
0.999998569887
0.999998655029
0.999998692258
0.999998757163
0.999998920626
0.99999893434
0.999998816732
0.999998925577
0.99999904689
0.999997953744
0.999998033794
0.999998468594
0.99999878971
0.999998891515
0.999998733858
0.999998561236
0.99999843042
0.999998386618
0.999998406353
0.999998432578
0.999998461482
0.999998507372
0.999998563705
0.99999861996
0.999998674298
0.999998717295
0.99999874803
0.999998779215
0.999998813751
0.999998864555
0.999998910757
0.999998911615
0.999998885298
0.999998876133
0.999998905491
0.999998859768
0.999998727434
0.999998690265
0.999998692199
0.999998580827
0.999998568207
0.999998575123
0.99999865519
0.999998810402
0.99999881632
0.999998852589
0.999998882175
0.999998921515
0.999999139302
0.999997892109
0.999997970913
0.999998409576
0.999998736275
0.999998846635
0.999998687032
0.999998513905
0.999998383047
0.999998340817
0.999998360381
0.99999838515
0.999998416938
0.999998466401
0.999998523142
0.999998584272
0.999998645022
0.999998693942
0.999998729901
0.999998772515
0.999998823848
0.999998884986
0.99999890463
0.999998887772
0.999998884185
0.999998914553
0.999998892805
0.999998789676
0.999998698571
0.99999869011
0.999998553272
0.999998531095
0.999998569269
0.999998552912
0.999998656975
0.999998863615
0.999998858249
0.999998835223
0.999998804265
0.999998751728
0.999999089556
0.999997838544
0.999997909001
0.999998349832
0.99999868181
0.999998798804
0.999998636867
0.999998462134
0.999998331256
0.999998293046
0.999998309197
0.999998334587
0.999998368974
0.999998417969
0.999998478231
0.999998547937
0.999998614063
0.999998669014
0.999998717334
0.999998767537
0.99999883474
0.999998893697
0.999998890743
0.999998885326
0.999998949633
0.999998931527
0.999998774615
0.999998771202
0.999998828694
0.999998951974
0.999998603462
0.99999847402
0.999998511361
0.999998509037
0.999998586567
0.99999869267
0.999998836753
0.999998897156
0.999998710094
0.999998704504
0.999999012118
0.999997783582
0.999997843667
0.99999828673
0.999998623184
0.999998741507
0.999998578031
0.99999840059
0.999998268958
0.999998230182
0.999998244871
0.999998273291
0.999998309492
0.999998358414
0.999998424582
0.999998501036
0.999998569865
0.999998630064
0.999998695621
0.999998754169
0.999998806099
0.999998858605
0.999998918676
0.999998970135
0.999998935952
0.999998842143
0.999998788435
0.99999883783
0.999998837556
0.999998675754
0.999998611217
0.999998453964
0.999998325846
0.999998280193
0.999998340506
0.999998471203
0.999998687792
0.999998758369
0.999998689097
0.999998696801
0.999998980909
0.999997702927
0.999997773997
0.999998218403
0.999998557273
0.999998671532
0.999998506145
0.999998324408
0.999998190634
0.999998146435
0.999998159135
0.999998191156
0.999998230746
0.999998283453
0.999998354352
0.999998429215
0.999998501793
0.999998576687
0.99999864937
0.999998704174
0.99999875064
0.999998830004
0.999998943418
0.999998951841
0.999998836861
0.999998836988
0.99999896628
0.999998741175
0.999998532651
0.999998481969
0.999998535022
0.999998294459
0.999998018664
0.999997996747
0.999998022214
0.999998274392
0.999998508586
0.999998582175
0.999998640771
0.999998704483
0.999998967571
0.999997606522
0.999997702144
0.999998145676
0.99999848467
0.999998592893
0.999998423895
0.999998234771
0.99999809418
0.999998049684
0.999998061214
0.999998093809
0.999998136259
0.999998191154
0.999998262611
0.999998340519
0.999998425794
0.999998514977
0.999998581412
0.999998641898
0.999998738331
0.99999884251
0.999998867481
0.999998824673
0.999998860967
0.999998961078
0.999998799353
0.999998589871
0.999998467176
0.999998444587
0.999998246442
0.999998012558
0.999997921293
0.9999978844
0.999997858348
0.999998092593
0.999998343313
0.999998462526
0.999998541629
0.99999862588
0.999998926102
0.999997567456
0.999997630421
0.99999807329
0.999998412196
0.999998516409
0.999998342342
0.999998146502
0.999997995416
0.99999794972
0.999997964549
0.999997997876
0.999998041301
0.999998098637
0.999998175344
0.999998269492
0.999998366839
0.999998453161
0.999998540259
0.999998644962
0.999998745552
0.99999880876
0.999998830431
0.999998818771
0.999998853962
0.999998885122
0.99999868948
0.999998536851
0.999998428456
0.999998261131
0.999998001156
0.999997885006
0.999997844198
0.999997742045
0.999997852488
0.999998033104
0.999998137283
0.99999835216
0.999998464696
0.999998540437
0.999998874926
0.999997536992
0.999997583766
0.999998006173
0.999998348857
0.999998454703
0.999998274655
0.999998077553
0.999997920734
0.999997861147
0.999997884985
0.999997924857
0.999997969276
0.999998035062
0.999998123716
0.99999822711
0.999998328687
0.999998429135
0.999998555048
0.999998676288
0.999998736279
0.999998791895
0.999998862761
0.999998854866
0.999998838207
0.999998833374
0.999998708988
0.999998509526
0.999998286738
0.999998036801
0.99999791283
0.999997830093
0.999997666095
0.99999759325
0.999997922152
0.999997924005
0.999998003891
0.99999828903
0.999998429432
0.999998494559
0.999998843003
0.999997501074
0.999997537076
0.999997952799
0.999998295603
0.99999840289
0.999998220423
0.99999802495
0.999997871388
0.999997808194
0.999997831671
0.99999787221
0.999997919541
0.999997994795
0.999998094028
0.999998201269
0.999998315839
0.999998435145
0.999998553978
0.999998677248
0.999998789077
0.999998851446
0.999998859483
0.99999888647
0.999998993798
0.999998885763
0.999998656003
0.99999847239
0.999998217568
0.999997941535
0.999997836429
0.999997713524
0.9999975031
0.99999757033
0.999997710397
0.999997771903
0.999998056694
0.999998293745
0.99999840387
0.999998489883
0.999998843792
0.999997459569
0.999997481761
0.999997894009
0.999998231337
0.999998321403
0.9999981489
0.999997958144
0.999997816574
0.999997753682
0.999997761107
0.99999780382
0.999997862715
0.999997941595
0.999998045416
0.999998163967
0.999998293152
0.999998425739
0.999998542272
0.999998657798
0.999998793384
0.999998902943
0.999998888487
0.999998909847
0.999999058463
0.999998918272
0.999998605307
0.99999843382
0.999998254791
0.999997915159
0.99999771805
0.999997584736
0.999997412529
0.999997412044
0.999997502045
0.999997789968
0.999998122173
0.999998297348
0.999998403805
0.999998492784
0.999998840381
0.999997401202
0.999997410001
0.999997798487
0.999998118534
0.999998165803
0.999998007521
0.999997823167
0.99999768688
0.999997624187
0.999997630933
0.999997674212
0.999997739643
0.999997825854
0.999997936499
0.999998068185
0.999998209255
0.999998350349
0.999998484508
0.999998609023
0.999998724276
0.999998816816
0.99999888489
0.9999989471
0.999998923991
0.999998818955
0.999998608639
0.999998381703
0.999998216523
0.999998022381
0.999997744856
0.999997461919
0.999997352778
0.999997358198
0.999997540031
0.999997901487
0.999998121693
0.99999828396
0.999998401698
0.999998445207
0.999998801224
0.999997332328
0.999997296007
0.999997651895
0.999997931838
0.999997931331
0.999997770957
0.999997589182
0.999997457695
0.999997400588
0.999997410477
0.999997455568
0.999997525308
0.999997619888
0.999997742472
0.999997884997
0.999998034652
0.999998189393
0.999998341794
0.999998474901
0.999998584921
0.999998686044
0.999998793637
0.999998865313
0.999998787988
0.999998621681
0.999998466642
0.999998334441
0.99999814639
0.99999790951
0.999997661185
0.99999737734
0.999997347318
0.999997398227
0.999997674678
0.999997897615
0.999998074516
0.999998243701
0.999998321389
0.999998358273
0.999998733737
0.999997198288
0.999997129186
0.999997435549
0.999997669719
0.99999762608
0.999997446468
0.999997257769
0.999997125413
0.999997068964
0.999997077182
0.999997127586
0.999997202792
0.999997302185
0.999997435096
0.999997591735
0.999997759962
0.999997935001
0.999998092175
0.999998223819
0.99999835542
0.999998495287
0.999998607311
0.999998643213
0.999998610095
0.999998488923
0.99999829182
0.999998092079
0.999997901857
0.999997639089
0.999997352778
0.999997347318
0.999997342762
0.999997337889
0.999997496341
0.999997737385
0.999997934494
0.99999807687
0.999998148805
0.999998223691
0.99999860605
0.999997171993
0.999997096424
0.999997221253
0.999997429581
0.999997349871
0.999997149519
0.999996956431
0.999996805912
0.999996720231
0.999996734413
0.999996818096
0.999996945131
0.999997093217
0.999997241432
0.999997402676
0.999997594543
0.999997758915
0.999997853848
0.999998006197
0.999998213994
0.999998426962
0.999998536825
0.999998528077
0.999998541627
0.999998461521
0.999998256074
0.999998002964
0.999997787817
0.9999976161
0.999997404943
0.99999734444
0.999997337889
0.999997332984
0.999997418984
0.999997658824
0.999997836822
0.999997981178
0.999998051031
0.999998094556
0.999998552414
0.9999977556
0.999997704061
0.999997829446
0.999997910228
0.999997829929
0.999997679391
0.999997541251
0.999997455641
0.99999742837
0.999997444829
0.999997495623
0.999997567876
0.999997662156
0.999997785354
0.999997920976
0.999998063788
0.999998222569
0.999998371611
0.99999849586
0.999998615513
0.99999875511
0.999998871497
0.999998883119
0.999998833841
0.999998759513
0.999998643936
0.999998483221
0.999998304062
0.999998154746
0.999998061604
0.999997897564
0.999997839692
0.999997945523
0.999998074936
0.999998206184
0.99999833699
0.999998461696
0.999998505106
0.999998520963
0.999999008105
0.999998978122
0.999998995698
0.999999201685
0.999999297113
0.999999194542
0.999998961179
0.999998724865
0.999998537863
0.999998406726
0.999998313346
0.999998228774
0.999998147394
0.999998103414
0.999998096876
0.999998092255
0.999998082849
0.999998069675
0.999998053029
0.999998033767
0.999998007248
0.999997980101
0.999997967079
0.999997957653
0.999997948424
0.999997941696
0.999997935868
0.999997929366
0.999997918752
0.999997904191
0.999997891603
0.999997883858
0.99999787542
0.999997876754
0.999997939424
0.999998018005
0.99999807607
0.9999981013
0.999998096654
0.999998134229
0.999998600998
0.999999011581
0.999999192168
0.999999429463
0.999999505091
0.999999380559
0.999999149447
0.999998922794
0.99999875391
0.999998638629
0.999998550559
0.999998475913
0.999998416908
0.999998377755
0.999998357132
0.999998348886
0.999998342381
0.999998330817
0.999998313258
0.99999829209
0.999998270546
0.999998249979
0.999998232727
0.999998221919
0.99999821599
0.999998212746
0.999998210174
0.999998205773
0.999998196778
0.999998182868
0.999998166606
0.999998154773
0.999998163214
0.999998206208
0.999998269111
0.999998331989
0.999998370756
0.999998371925
0.999998327603
0.999998277864
0.999998677826
0.999999260236
0.999999477834
0.999999736632
0.999999828297
0.999999724737
0.999999519889
0.999999319554
0.999999173317
0.999999075463
0.999999002418
0.999998942201
0.999998896803
0.999998870115
0.999998859458
0.999998856438
0.999998852673
0.999998843709
0.999998829657
0.999998813241
0.999998797318
0.999998784176
0.999998775276
0.999998771041
0.999998770351
0.999998771773
0.999998772953
0.999998771279
0.99999876436
0.999998751082
0.999998733865
0.999998720054
0.999998721214
0.999998748848
0.999998798904
0.999998846954
0.999998860077
0.999998812899
0.999998703096
0.999998574406
0.999998840002
0.999999418751
0.99999962936
0.999999904657
1.00000002079
0.999999943878
0.999999762342
0.999999579966
0.999999448076
0.999999363489
0.999999303248
0.999999254969
0.999999220015
0.99999920189
0.999999197663
0.999999199179
0.99999919882
0.999999192722
0.999999181671
0.999999168631
0.999999156706
0.999999147957
0.999999143568
0.999999143105
0.999999145653
0.999999149564
0.999999152146
0.999999150918
0.999999143101
0.999999127094
0.999999104854
0.999999085108
0.999999078703
0.999999099717
0.999999143306
0.99999918002
0.999999172147
0.999999084771
0.999998918867
0.999998742575
0.999998940835
0.999999428423
0.999999616444
0.999999908187
1.00000004677
0.999999989541
0.999999819305
0.999999645647
0.999999521447
0.999999444837
0.999999392739
0.999999351955
0.999999323454
0.999999310788
0.999999310833
0.999999315689
0.999999318037
0.99999931412
0.999999305022
0.999999294057
0.99999928442
0.999999278178
0.999999275955
0.999999277187
0.999999280978
0.999999285293
0.999999287452
0.99999928496
0.9999992746
0.999999254231
0.999999225314
0.999999196875
0.999999182556
0.999999197219
0.999999237187
0.999999270241
0.999999247409
0.999999130895
0.999998928734
0.999998724269
0.999998911371
0.999999317053
0.999999516312
0.999999828749
0.999999984252
0.999999936559
0.999999769594
0.999999597237
0.999999475286
0.999999402077
0.999999353767
0.999999316865
0.999999292122
0.999999282595
0.999999284891
0.999999291497
0.99999929497
0.999999291984
0.999999283678
0.999999273348
0.999999264204
0.999999258305
0.999999256135
0.999999256938
0.999999259675
0.999999262103
0.999999261697
0.999999255545
0.999999239893
0.999999212186
0.999999173916
0.999999134667
0.999999111406
0.999999118945
0.999999156876
0.999999190178
0.999999165547
0.999999040608
0.99999882166
0.999998594189
0.9999988091
0.999999205952
0.999999428801
0.999999758168
0.99999992346
0.999999879676
0.999999712575
0.999999539683
0.999999418366
0.999999346628
0.999999300288
0.999999265417
0.999999242393
0.999999233299
0.999999237263
0.99999924641
0.9999992506
0.999999247868
0.999999239627
0.999999228602
0.999999217271
0.999999208345
0.999999204433
0.99999920447
0.999999206598
0.999999208697
0.999999207251
0.999999199449
0.999999179779
0.999999146226
0.999999100829
0.999999052938
0.999999022277
0.9999990233
0.999999058221
0.999999091692
0.999999069471
0.999998944552
0.999998719611
0.999998482062
0.999998720601
0.999999143657
0.999999386039
0.999999724376
0.999999894771
0.999999852444
0.999999684994
0.99999951225
0.999999391828
0.999999320265
0.999999275636
0.999999242548
0.999999217339
0.999999208561
0.999999215396
0.999999227662
0.999999234694
0.999999232572
0.999999223013
0.999999210729
0.999999198761
0.999999190074
0.999999186325
0.99999918613
0.999999187525
0.999999188356
0.999999186011
0.999999177319
0.999999157537
0.999999121813
0.999999071599
0.999999015753
0.999998974718
0.99999896907
0.999999003704
0.999999039622
0.999999018574
0.999998895541
0.999998671436
0.999998426126
0.999998682864
0.999999126724
0.999999364583
0.999999706803
0.999999880293
0.999999838657
0.999999670895
0.999999498587
0.999999379351
0.999999309734
0.999999267293
0.999999237027
0.999999214688
0.999999207622
0.999999217277
0.999999233023
0.999999242075
0.999999240901
0.999999231572
0.999999219035
0.999999207962
0.999999200407
0.999999198122
0.999999197997
0.999999198673
0.999999197434
0.999999193344
0.999999184594
0.999999164282
0.999999126725
0.999999073716
0.999999014284
0.999998967801
0.999998955952
0.999998986915
0.999999024523
0.999999003197
0.999998881823