/*--------------------------------*- C++ -*----------------------------------*\
| =========                 |                                                 |
| \\      /  F ield         | foam-extend: Open Source CFD                    |
|  \\    /   O peration     | Version:     4.1                                |
|   \\  /    A nd           | Web:         http://www.foam-extend.org         |
|    \\/     M anipulation  |                                                 |
\*---------------------------------------------------------------------------*/
FoamFile
{
    version     2.0;
    format      ascii;
    class       volScalarField;
    location    "0.7";
    object      epsilon;
}
// * * * * * * * * * * * * * * * * * * * * * * * * * * * * * * * * * * * * * //

dimensions      [0 2 -3 0 0 0 0];

internalField   nonuniform List<scalar> 
96000
(
0.0114388524272
0.0118376334625
0.0123645190532
0.0126631910873
0.0128066516932
0.0128721873217
0.0129017058542
0.0129157287348
0.0129233059643
0.0129285336901
0.0129330087285
0.0129374295105
0.0129420413175
0.012946948976
0.0129521779677
0.0129577258693
0.0129635839965
0.0129697296594
0.0129761339265
0.0129827291507
0.0129894788072
0.0129964606545
0.0130035329428
0.0130106273497
0.0130177310784
0.0130247865067
0.0130317398732
0.0130385104922
0.0130449864465
0.0130509769991
0.0130560339021
0.013059210498
0.0130581682109
0.0130479075838
0.0130170192638
0.0129424435097
0.0127776923179
0.0124440805149
0.0118743613797
0.0114435681115
0.0118368185635
0.0170277221545
0.021093269293
0.0235998126113
0.0249698638737
0.025681175392
0.0260326757435
0.0262004604442
0.0262793717423
0.0263184131667
0.0263411581264
0.026358139737
0.0263736130291
0.0263895183078
0.02640656962
0.0264250740239
0.0264451156405
0.0264666755346
0.0264897487839
0.0265140939385
0.0265395974345
0.0265662306667
0.0265936886289
0.0266216701133
0.0266499949789
0.0266784275439
0.0267063622669
0.026733151714
0.0267575156864
0.0267766060943
0.0267843088142
0.0267676751266
0.0266984832306
0.0265227083845
0.026135041447
0.0253564998129
0.0238821590896
0.0212592139453
0.0171175224661
0.0118398778018
0.0123616859507
0.0210864086458
0.0282418515782
0.0328087343895
0.0354816327436
0.036974941468
0.0377681832329
0.0381712087875
0.0383685665595
0.038464704916
0.0385134783518
0.0385416109026
0.0385612616478
0.0385778663908
0.0385936736109
0.0386100931003
0.038628504559
0.0386491073998
0.0386718219431
0.0386965278232
0.0387230501489
0.0387514154626
0.0387812140226
0.0388120231595
0.0388435755334
0.0388753202506
0.0389063465909
0.0389350291402
0.038957915465
0.0389679997991
0.0389496907874
0.0388721167466
0.0386731875307
0.0382418111252
0.0373813241007
0.0357832177519
0.0329662254204
0.0282614348401
0.0210496871103
0.0123479671119
0.0126589391096
0.0235880721671
0.0328023285436
0.0389004408384
0.0426394479208
0.0448332184869
0.0460587132277
0.0467119960006
0.0470456398517
0.0472121427787
0.0472959609154
0.0473413195519
0.0473697880544
0.0473914671491
0.047410747158
0.0474296025385
0.0474487748869
0.0474696354089
0.0474931005714
0.047519015326
0.0475473333837
0.0475778473747
0.047610181756
0.0476439181575
0.0476785319329
0.0477131667897
0.0477463450076
0.047775262901
0.0477937663579
0.0477893245217
0.0477360036764
0.0475838707457
0.0472389518947
0.0465416751678
0.0452279533276
0.0429068819197
0.0390027853357
0.032761916078
0.0235004117911
0.0126359781076
0.0128016134702
0.0249543699065
0.0354697904786
0.0426340268162
0.0471748484309
0.0499314128192
0.0515269760021
0.0524078560493
0.0528726610875
0.0531104587701
0.0532311583538
0.0532951521652
0.0533330400274
0.0533597559922
0.053382231843
0.0534033838882
0.053424603342
0.0534474994954
0.053473237568
0.0535017300012
0.0535328928625
0.0535664983007
0.0536020736292
0.0536391704021
0.0536770903571
0.0537146661488
0.0537497852125
0.0537781699494
0.0537909681727
0.053770163148
0.0536796732054
0.0534528390264
0.0529692074718
0.0520329915094
0.050334402855
0.0474356449644
0.0427179166558
0.0354093395697
0.0248460791579
0.0127739054619
0.0128668150828
0.0256636635557
0.0369594605741
0.0448235769314
0.0499275855945
0.0531025100658
0.0549870687911
0.0560542084238
0.0566312406566
0.0569327336741
0.0570878423838
0.0571697618005
0.0572170752818
0.0572491016285
0.0572748522809
0.0572985282587
0.0573231661752
0.0573505405786
0.05738090161
0.057414169823
0.0574502443413
0.0574888403455
0.0575294473049
0.0575715605387
0.0576142731172
0.0576562149225
0.0576945405537
0.0577236798893
0.0577321349492
0.057697066801
0.0575738861179
0.0572822695382
0.056682067509
0.0555520509622
0.0535541892362
0.0502262640205
0.0449349649201
0.0369202744668
0.025562649427
0.0128371725223
0.0128962505488
0.0260143033482
0.0377508598097
0.0460466301436
0.051520560392
0.0549845559862
0.0570773716202
0.058284219772
0.0589485905084
0.0593013674747
0.0594851637474
0.0595827273278
0.059638609837
0.0596756043264
0.0597047506875
0.0597325737601
0.0597621909202
0.0597946075987
0.0598300552151
0.0598684779424
0.0599099045388
0.05995384686
0.0599998328226
0.0600471841234
0.0600949595435
0.0601414103057
0.0601831962194
0.06021367318
0.060219162241
0.0601729167218
0.0600237900798
0.0596812760915
0.0589913181956
0.0577164553722
0.0555022458109
0.0518763468557
0.0462050427795
0.0377491740231
0.025930480981
0.0128658110169
0.0129103713712
0.0261821119875
0.0381535643598
0.0466992333809
0.0524006524724
0.0560510442697
0.0582834563771
0.0595871413048
0.0603141567761
0.0607050648233
0.0609110192479
0.0610212450806
0.061084583508
0.0611263917744
0.0611612972809
0.0611953206837
0.0612311074143
0.0612696101862
0.0613111533668
0.0613557364587
0.0614032222879
0.0614533047723
0.0615053491904
0.0615586632218
0.0616121399483
0.0616638662791
0.0617101266113
0.0617434151781
0.061748247616
0.0616950100956
0.0615277676224
0.0611491292281
0.060395868078
0.0590206957225
0.056660416738
0.0528395677351
0.0469293048927
0.038208889493
0.0261273825659
0.0128801153832
0.012918123981
0.0262615270271
0.0383515227599
0.0470334127914
0.0528660184982
0.0566287451654
0.0589486471224
0.0603148973136
0.0610837027469
0.0615009872914
0.0617229974193
0.0618429859463
0.0619129741038
0.0619620340739
0.0620034924764
0.0620436834858
0.062085413203
0.0621298817319
0.0621775488062
0.0622283217135
0.0622819688362
0.0623381522445
0.0623962689556
0.062455505935
0.0625147999165
0.0625721338731
0.0626232739415
0.062660020331
0.062665816807
0.0626090749002
0.0624305995371
0.0620284715267
0.0612337666676
0.0597935313169
0.0573401055378
0.0533982313817
0.0473438015249
0.0384693486783
0.0262385889637
0.0128882236501
0.0129235873547
0.0263017355743
0.0384488837329
0.0472013531052
0.0531054385891
0.0569320262401
0.0593033802775
0.0607078617476
0.0615030367563
0.0619377233653
0.0621709661405
0.0622993194851
0.0623775033064
0.0624335710771
0.0624814598985
0.0625278617329
0.0625759836647
0.0626268073455
0.0626806886888
0.0627378179784
0.0627977932508
0.0628602215927
0.0629244926347
0.0629899956582
0.0630553548103
0.0631183463179
0.0631746517161
0.0632156269979
0.0632239480811
0.0631666710309
0.0629824833072
0.0625666478101
0.0617467528638
0.0602666133007
0.0577563955341
0.053741522704
0.0476013886345
0.0386357284799
0.0263138218103
0.0128942466851
0.0129283406445
0.0263259671491
0.0384992530311
0.04728711588
0.0532284798664
0.0570897150705
0.059489966279
0.0609167462688
0.0617280456636
0.0621739901756
0.062416327581
0.0625532169297
0.0626386040749
0.0627011973018
0.0627555379424
0.0628082739361
0.0628624328212
0.0629195318875
0.0629797092853
0.0630430415089
0.0631092048229
0.0631778351598
0.0632483571108
0.0633199085588
0.0633911508587
0.063459819915
0.0635214310327
0.0635670765149
0.063578935452
0.0635231337292
0.0633370136386
0.0629141042873
0.0620797422472
0.0605759750183
0.0580315291194
0.0539725433496
0.0477798799656
0.0387566885763
0.0263724937311
0.0128994382581
0.0129330896322
0.0263446713204
0.0385292146397
0.0473348440022
0.0532952647688
0.0571748524763
0.0595909645601
0.0610305917474
0.0618517540127
0.0623065605709
0.0625574328484
0.0627016566388
0.0627938420429
0.0628629541425
0.0629233896464
0.0629822524209
0.0630427499117
0.0631059915744
0.0631724261018
0.0632419408694
0.0633143940283
0.0633892476822
0.0634657729655
0.0635431936664
0.0636202221218
0.0636945366029
0.0637615471312
0.0638121689166
0.0638281895066
0.0637751746435
0.0635895385208
0.0631636980693
0.0623214282908
0.0608037295718
0.0582380787018
0.0541509478297
0.0479232438113
0.0388589214314
0.0264254471779
0.0129045156372
0.0129380750181
0.0263622013524
0.0385508856112
0.0473659587782
0.0533363279243
0.0572258196811
0.0596507957282
0.0610980835946
0.0619269333521
0.0623899259712
0.0626479994123
0.062799134597
0.0628976169851
0.0629727523978
0.0630394004988
0.0631044244872
0.063171068947
0.0632404509635
0.0633129814892
0.0633887509172
0.0634672562815
0.0635480640077
0.0636304606724
0.063713636923
0.0637963167509
0.0638761609021
0.0639485286315
0.0640041958558
0.0640246956146
0.0639751666781
0.0637913788751
0.0633649020821
0.0625183990525
0.0609919629419
0.0584120138837
0.0543049333811
0.0480507570259
0.038952822811
0.0264756291649
0.012909569232
0.0129434066925
0.0263804607149
0.0385696734864
0.0473905369954
0.0533665803286
0.0572618324653
0.0596921973072
0.0611457349502
0.0619820140387
0.0624520569578
0.0627169403137
0.0628742489067
0.0629787304155
0.0630601415448
0.0631327586767
0.0632039726962
0.0632766483156
0.0633521358105
0.0634308003681
0.0635125651799
0.0635969466712
0.0636834423417
0.0637715094892
0.0638602826674
0.0639484577057
0.0640336949438
0.064111323012
0.0641720142199
0.0641970890259
0.0641513871425
0.0639701062621
0.0635441757617
0.0626952251798
0.0611627083146
0.0585717926678
0.0544485870599
0.0481718329547
0.0390433125955
0.0265247142133
0.0129146491881
0.0129491168
0.0264001862955
0.0385882540949
0.0474129658509
0.0533928498085
0.0572919662211
0.0597270294494
0.061187424905
0.0620302458404
0.0625070195059
0.0627779831374
0.0629413341142
0.0630520315823
0.0631393130381
0.0632180655686
0.0632951989126
0.0633738756852
0.0634554425781
0.0635400096747
0.0636274379116
0.063717477427
0.0638095011449
0.0639029700391
0.0639971095244
0.0640905836923
0.0641810454167
0.0642637781796
0.0643293765383
0.0643589907764
0.064317179878
0.0641386180521
0.0637136671436
0.0628630478065
0.0613254946515
0.0587250188482
0.0545873032928
0.048289528658
0.0391315276843
0.0265725156889
0.0129196598003
0.0129552054524
0.0264216805475
0.038608978143
0.0474351605195
0.0534181733009
0.0573214594219
0.0597622019292
0.0612289304175
0.0620781272606
0.0625610241771
0.0628380024731
0.0630074883312
0.0631240471577
0.0632173402417
0.0633019590392
0.0633849953074
0.0634696858771
0.063556951138
0.0636471047598
0.0637400547608
0.0638354238584
0.0639327490127
0.0640314207225
0.0641306710691
0.0642292314732
0.0643247226677
0.0644123667836
0.064482693301
0.0645166984046
0.0644786318905
0.0643027288462
0.0638787547047
0.063026576542
0.0614842668888
0.0588746133632
0.0547229174324
0.0484045677558
0.0392175852454
0.0266187234675
0.0129246098339
0.0129616521482
0.0264451003726
0.0386321782429
0.0474593787015
0.0534452109573
0.0573536848456
0.0597998618579
0.0612728645654
0.0621281052594
0.0626170385556
0.0629000942041
0.0630754396248
0.0631978864269
0.0632969848353
0.0633873951472
0.0634763397434
0.0635665471553
0.0636593264584
0.0637547996755
0.0638530045659
0.0639534891082
0.0640558258287
0.0641594648459
0.0642636037084
0.0643669905044
0.0644672479875
0.0645595618157
0.0646343691128
0.0646724842501
0.0646378980027
0.0644643658653
0.0640411263072
0.0631870981082
0.0616398142068
0.0590208530303
0.054855167105
0.0485164977969
0.0393006697162
0.0266627604
0.0129313071656
0.0129684452352
0.0264703357016
0.0386579208249
0.0474866710659
0.0534755465431
0.0573892723946
0.059840823938
0.0613201244462
0.0621812034441
0.0626763062277
0.06296515972
0.0631463470535
0.0632745313699
0.0633793314493
0.0634755492496
0.0635698900036
0.0636655228627
0.063763450823
0.063864044756
0.0639671586086
0.0640725049515
0.0641795857355
0.0642878953388
0.0643966610516
0.0645045992712
0.0646093342346
0.0647060006387
0.0647849535002
0.0648267989938
0.064795304635
0.0646237289813
0.0642007482567
0.0633444082436
0.0617916983486
0.059163033615
0.0549831306532
0.0486242814187
0.0393799232318
0.0267039330273
0.0129402488668
0.0129755461971
0.0264972533408
0.038686169735
0.0475169723701
0.0535092446687
0.057428250707
0.059885414407
0.0613707681786
0.0622378779281
0.0627388337409
0.0630335381019
0.0632204262811
0.0633542262219
0.0634647388433
0.0635662271799
0.0636658557363
0.0637664996587
0.0638693698788
0.0639747209103
0.0640825148929
0.0641923941977
0.0643039580972
0.064416656027
0.0645297525039
0.0646419400751
0.0647508064129
0.0648514440483
0.0649341085183
0.0649792607169
0.0649503515124
0.0647801780159
0.064356898187
0.0634976663702
0.0619389381676
0.0593000951604
0.0551057228843
0.0487267682472
0.039454227134
0.0267463575524
0.0129513578128
0.0129828935142
0.0265256615402
0.0387166719111
0.0475502493812
0.0535461788951
0.0574707242459
0.0599334376684
0.061424837067
0.0622978116173
0.0628047162218
0.0631050280678
0.0632974818289
0.0634368840447
0.0635525627102
0.0636592109144
0.0637637178931
0.0638691577782
0.0639766269305
0.0640864686897
0.0641986379157
0.0643128016781
0.0644285612034
0.0645453705512
0.0646624729881
0.0647785462298
0.0648911409283
0.0649953061329
0.0650812242545
0.065129140975
0.0651022957103
0.0649329736259
0.0645087986422
0.0636460518331
0.0620807945583
0.0594312845602
0.0552221147306
0.0488230910298
0.0395245808869
0.0267970931745
0.0129648697096
0.0129904537
0.0265554736353
0.0387492599007
0.0475863013055
0.0535862132896
0.0575163570847
0.0599845314426
0.0614820096233
0.062360758123
0.0628733289033
0.0631791620295
0.0633771421167
0.063521668506
0.0636423818287
0.0637537927909
0.0638629895028
0.0639728938965
0.064084705706
0.0641987796309
0.0643150565702
0.0644332428375
0.064552905895
0.0646735040968
0.0647942507325
0.0649138001106
0.0650296855806
0.0651369196532
0.0652255995188
0.0652758423513
0.0652505835251
0.0650816356746
0.0646561199417
0.0637893921684
0.0622170914833
0.0595564744789
0.0553322571713
0.048916393567
0.0396021402299
0.026854726573
0.0129810070521
0.0129982448562
0.0265865253579
0.0387839691216
0.0476246975804
0.0536288371649
0.0575645737055
0.0600381783387
0.0615416309808
0.0624259971058
0.0629441379824
0.063255422484
0.0634585901673
0.0636080271263
0.0637334797795
0.0638494759171
0.0639630154389
0.064077165099
0.0641930575942
0.064311092003
0.0644312360221
0.0645531477697
0.0646764091475
0.0648004446162
0.0649244451315
0.065047062062
0.0651658255877
0.0652757388483
0.0653668579749
0.0654191225783
0.0653952339755
0.0652264605903
0.0648002235799
0.063930796771
0.0623524216464
0.0596836711335
0.0554479340816
0.049019520384
0.0396877695683
0.0269183087503
0.0129997728942
0.0130062071914
0.0266186168777
0.0388201836534
0.0476650373523
0.0536734536167
0.0576147943399
0.0600939044098
0.06160311635
0.0624929448504
0.0630166154772
0.0633330621732
0.0635410855789
0.0636952523243
0.0638251769453
0.0639454731863
0.0640631634888
0.0641812713122
0.064301017695
0.0644227839166
0.0645465166332
0.0646718637952
0.0647983867715
0.0649254910209
0.0650523794126
0.0651777215351
0.0652991043197
0.0654115428668
0.0655050616734
0.0655620288234
0.0655436544513
0.0653795977662
0.0649558664198
0.0640852462137
0.0625018417757
0.0598243680553
0.0555758016852
0.0491320243289
0.0397805752901
0.0269871532461
0.0130206886616
0.013014231574
0.0266513351434
0.0388574235252
0.047706799304
0.0537195863217
0.0576664056835
0.0601508340051
0.0616655944457
0.0625607990948
0.0630897053237
0.0634110740263
0.0636237769081
0.0637823931732
0.0639166004882
0.064040950616
0.0641625424825
0.064284416355
0.0644077744835
0.0645330234995
0.0646600638056
0.0647885268439
0.0649179685904
0.0650478081535
0.0651773140742
0.0653052430002
0.0654292740967
0.0655481402776
0.0656510269893
0.0657165886871
0.0657056603218
0.0655471320598
0.0651257583857
0.0642540996051
0.0626651586864
0.0599779836775
0.0557151493021
0.0492538336068
0.0398803471363
0.0270609536901
0.0130432811816
0.0130222785153
0.026684329978
0.0388953444239
0.0477492871304
0.053766373213
0.0577185278498
0.060207832295
0.0617279491317
0.062628303334
0.0631620981032
0.0634881205762
0.0637053017823
0.0638681172802
0.064006359755
0.0641345722108
0.0642598429441
0.0643852433003
0.0645119951233
0.0646404493851
0.0647705018207
0.0649017565179
0.0650337986361
0.065166149243
0.065298204532
0.0654308728743
0.0655647677365
0.0656940835766
0.0658070927611
0.0658821426258
0.065879251622
0.0657267527832
0.0653084044052
0.0644359915525
0.0628414659786
0.0601439386776
0.0558660653019
0.0493854095361
0.0399877730003
0.027140316166
0.0130673809643
0.0130302955233
0.0267172745225
0.0389332920666
0.0477916623553
0.0538125881139
0.057769465692
0.060263206255
0.0617882336864
0.0626931812666
0.0632315301469
0.0635618891257
0.0637832612562
0.0639500699431
0.0640921007223
0.0642239431496
0.0643526926512
0.0644813929046
0.064611262359
0.0647426179011
0.0648753402658
0.0650090593339
0.0651434735819
0.0652782949702
0.0654164503096
0.0655603163075
0.0657054840998
0.0658458759474
0.0659698898403
0.0660551909784
0.0660611477863
0.065915734943
0.0655008501807
0.0646282967091
0.0630285838074
0.0603207073321
0.0560274438774
0.0495269794741
0.0401037615522
0.0272260552876
0.0130930883416
0.0130382053328
0.0267497266194
0.038970288654
0.0478323400416
0.0538559873011
0.0578163807547
0.0603135109738
0.0618424713612
0.0627512530109
0.0632935838307
0.0636278434758
0.0638530512458
0.0640235545454
0.0641691163799
0.0643043252724
0.0644362804444
0.0645679994878
0.0647006598551
0.0648345503936
0.0649695538137
0.0651054464578
0.06524210684
0.0653832134946
0.0655326861848
0.0656876360384
0.0658446378277
0.0659969762316
0.0661327062888
0.0662290413103
0.0662447555228
0.0661073275484
0.0656970364365
0.0648250937041
0.0632212258672
0.0605041782045
0.0561957839555
0.0496757581791
0.0402266796289
0.0273172922182
0.0131202605347
0.013045926649
0.0267808885991
0.0390047102825
0.0478683471898
0.0538922363099
0.0578536263862
0.0603520049714
0.0618829823528
0.0627942423377
0.0633395695042
0.0636770199238
0.0639055272341
0.0640793028684
0.0642280501529
0.0643662955807
0.0645011022293
0.0646354492122
0.0647704436688
0.0649063857936
0.0650432613249
0.0651810161648
0.0653223368444
0.0654742705219
0.0656346026188
0.0658011554878
0.0659699788706
0.0661346470186
0.0662826592238
0.0663909023851
0.0664174454573
0.0662885136473
0.0658844201815
0.0650149410207
0.0634090482948
0.0606849790347
0.0563644604856
0.0498264177445
0.0403527717287
0.0274112604495
0.0131484244971
0.0130533476537
0.0268092716098
0.0390330566582
0.0478933883564
0.0539123044482
0.0578695770453
0.0603646942081
0.0618942499959
0.0628054409007
0.0633519921322
0.0636914120226
0.0639223392121
0.0640987174061
0.0642500831367
0.0643908403678
0.0645279525346
0.0646643091641
0.0648010110587
0.0649383590006
0.0650765101287
0.0652164775692
0.0653670940077
0.0655287228786
0.0656998707431
0.0658775718675
0.0660585387078
0.0662355395591
0.0663959129961
0.0665160307503
0.066553745875
0.0664348908526
0.0660387090386
0.0651747603139
0.0635712468188
0.0608460070054
0.0565192778813
0.0499696069899
0.0404760126314
0.0275050261849
0.0131770886083
0.0130602567406
0.0268322245928
0.0390481738667
0.0478949732025
0.053897998571
0.0578411922044
0.0603246780518
0.0618464089318
0.0627530171797
0.0632976804865
0.0636369831567
0.0638689078195
0.0640468248474
0.0641999387251
0.0643423839411
0.0644809677434
0.0646184813624
0.0647559492764
0.0648937886499
0.0650324148058
0.0651777671121
0.065336627563
0.0655071257498
0.0656876893444
0.0658758607504
0.0660677666715
0.0662561400284
0.0664281640008
0.0665599908237
0.0666092092969
0.0665017593794
0.0661168084378
0.0652639639581
0.0636711060567
0.060955218491
0.0566353719372
0.0500874669387
0.0405860092234
0.0275943659771
0.0132057275961
0.013066172471
0.0268432384448
0.0390340662538
0.0478465832663
0.0538128491202
0.0577233039692
0.0601802831938
0.0616830733298
0.0625773235109
0.0631149045658
0.0634506651321
0.0636812487472
0.0638590018753
0.0640124456661
0.0641552753557
0.0642940299976
0.0644313068302
0.0645681476329
0.064705080083
0.0648437211974
0.064995096563
0.0651602852469
0.0653376954998
0.0655258195449
0.0657223410746
0.0659231287059
0.0661209349916
0.0663028790932
0.0664453195458
0.0665062882143
0.0664122920351
0.0660436220139
0.0652107799769
0.0636423044046
0.0609547227209
0.0566652275055
0.0501450144726
0.0406613361953
0.0276696993006
0.0132331040104
0.0130701482978
0.0268294367921
0.038959738746
0.0476981711359
0.0535899320323
0.0574353608964
0.0598407478556
0.0613065244042
0.0621761433
0.0626986334276
0.0630257029589
0.0632515609246
0.0634266847446
0.0635784696089
0.0637198782625
0.0638569791374
0.0639921955978
0.0641265425623
0.0642606921764
0.0643996366664
0.0645541291287
0.0647226132345
0.0649037612595
0.0650963793782
0.0652977109763
0.0655040648734
0.0657080425595
0.065897067064
0.0660482435489
0.0661208132123
0.066043142927
0.0656979980717
0.0648986187117
0.0633760739192
0.0607476006073
0.0565275599313
0.0500811193527
0.0406631785819
0.0277140520176
0.013257381461
0.0130697586745
0.0267620031092
0.0387623091578
0.0473548990984
0.0531077210511
0.0568360299571
0.059150884037
0.0605523978303
0.0613793891767
0.0618753801223
0.0621865238244
0.0624028110822
0.0625718288275
0.0627190889581
0.0628564229128
0.0629892902559
0.0631198480411
0.06324906039
0.0633777995468
0.0635159928176
0.0636701661614
0.0638382135856
0.0640192615299
0.0642118370374
0.0644136175086
0.0646206923881
0.0648263029265
0.0650184663656
0.0651756231092
0.0652593191398
0.0652014466259
0.0648894919121
0.0641423620099
0.062696473463
0.0601724753329
0.0560835180545
0.0497859634679
0.0405174047522
0.0276911838009
0.0132741953463
0.0130599447491
0.0265867495185
0.0383304176992
0.0466568494446
0.0521702075303
0.0557039922375
0.0578729855177
0.0591731891949
0.0599340672489
0.0603890291539
0.0606753200609
0.0608763183964
0.0610351174878
0.0611745282834
0.0613047933477
0.0614305810726
0.0615536164923
0.0616748373413
0.0617961165832
0.06193037849
0.0620795701308
0.0622425051196
0.0624181155933
0.0626052632221
0.0628018230497
0.0630040993566
0.0632057233253
0.0633960438258
0.0635556207283
0.0636495896012
0.0636152205992
0.0633481644939
0.0626772945742
0.0613489910568
0.0589915979574
0.0551209429918
0.049085567356
0.0401011815552
0.0275398085573
0.0132762725437
0.0130290825825
0.0261972757826
0.0374660333711
0.0453382713575
0.0504658986316
0.0536991420586
0.0556506934071
0.0568037368718
0.0574705643992
0.0578679337477
0.0581192539225
0.058298322607
0.05844195415
0.0585693464707
0.0586887311838
0.058803732924
0.0589156190156
0.0590252022345
0.0591374742323
0.0592644870766
0.0594049811995
0.0595581446522
0.0597232314172
0.0598995718571
0.0600848826461
0.060276212582
0.0604678574894
0.0606507803423
0.0608084206009
0.0609105802588
0.0609034210926
0.0606936193526
0.0601251920196
0.0589623180124
0.0568491387009
0.0533119690049
0.0476975064101
0.0392010705142
0.0271406299647
0.0132469395333
0.0129539870381
0.0254146463699
0.0358610343919
0.0430088801083
0.0475571860209
0.0503596768588
0.0520117655897
0.0529689251953
0.0535140864585
0.0538382498886
0.0540455123932
0.0541966359438
0.0543205087741
0.0544319077215
0.0545368058536
0.054637597666
0.0547350231846
0.0548297467218
0.0549317230458
0.055047372974
0.0551748124128
0.0553133651266
0.0554626509612
0.0556225025062
0.0557909232088
0.0559652078535
0.0561407011329
0.0563103206129
0.0564607295263
0.0565686607684
0.0565898712066
0.0564475376304
0.056007071592
0.0550594770351
0.0532777823056
0.0502131986433
0.0452258046237
0.0375033089194
0.0263092219095
0.0131587647537
0.0127877863576
0.0239328472791
0.033032549989
0.0390907477183
0.0428226844683
0.0450490268319
0.0463194561949
0.0470367018048
0.0474377832495
0.0476768980295
0.0478328407267
0.0479505009999
0.0480496260612
0.0481403666084
0.048226145503
0.0483083705218
0.0483872220616
0.0484668481509
0.0485580511852
0.0486601349564
0.048771820621
0.0488924750944
0.0490219013849
0.0491605006027
0.0493071609414
0.0494592370412
0.0496127788322
0.0497628249091
0.0499003824465
0.050008712042
0.050056133759
0.0499847812145
0.049689214397
0.0489988612573
0.0476331539408
0.0451922735072
0.0410800818243
0.0345116740076
0.0247278555152
0.012958366684
0.0124518509354
0.0213005583417
0.0283130467831
0.0328304644653
0.0354899778507
0.0370063589135
0.0378333763952
0.0382854049402
0.0385332607207
0.0386830778027
0.0387840939788
0.0388637026176
0.0389328100229
0.0389968820241
0.0390574258767
0.0391149819112
0.0391717822024
0.0392389687728
0.0393153124451
0.0393997970962
0.0394916926957
0.0395903871874
0.0396954450019
0.0398079032951
0.0399276134076
0.0400515331797
0.0401768364557
0.0403006741866
0.0404175585494
0.0405181462189
0.0405826320307
0.0405751620595
0.0404250955223
0.0400127438153
0.0391270997118
0.0374525372765
0.0344894378682
0.029550139549
0.021945763258
0.0125682168593
0.0118792318792
0.0171439286028
0.0210753388094
0.0235320371515
0.0248819999528
0.0255995470725
0.0259648073276
0.0261560907962
0.0262586093815
0.0263226911071
0.0263679349256
0.0264055331347
0.0264388701376
0.0264698370057
0.0264987884016
0.0265305653243
0.0265734941687
0.0266248645254
0.0266826543635
0.026746191042
0.0268152138983
0.0268891383026
0.0269670227034
0.0270492560828
0.0271369557997
0.0272275205085
0.0273189496847
0.0274099016893
0.027498000859
0.0275793054359
0.0276451879268
0.0276801689556
0.0276503609358
0.0274963985963
0.027101204482
0.0262805732174
0.0247150387029
0.0219469446637
0.0175647759371
0.0119302386322
0.011444621028
0.0118409963575
0.0123482418115
0.0126359505335
0.0127737715326
0.0128368440187
0.0128650070091
0.0128786033318
0.0128856174595
0.0128902679881
0.0128937651911
0.0128968869242
0.0128997442661
0.0129038575494
0.0129114707356
0.0129222462669
0.0129348419582
0.0129492386546
0.0129656607023
0.0129840827648
0.0130043206125
0.0130261045422
0.0130491864727
0.0130734886686
0.0130991355817
0.0131256928001
0.0131526889816
0.0131798698121
0.0132067594684
0.0132328223611
0.0132570184664
0.0132777038384
0.0132908347406
0.0132894571414
0.0132573268196
0.0131670306522
0.0129646469983
0.0125708279835
0.0119240606805
0.0114840125062
0.0119808093876
0.0150859248387
0.0173228417091
0.0186006318855
0.0192770594148
0.0196189035466
0.0197848098744
0.019864673369
0.0199042933926
0.0199267668662
0.0199423588141
0.0199557158376
0.019968733647
0.0199821694478
0.0199963100429
0.0200111828619
0.0200268346395
0.0200431975865
0.0200601556416
0.0200775783165
0.0200954092323
0.0201137591059
0.0201323343356
0.0201509434757
0.0201695206605
0.0201879422999
0.0202060763871
0.0202235985422
0.0202399485135
0.0202540441175
0.0202632390792
0.0202618007691
0.0202368291098
0.0201622054077
0.0199857292072
0.0196123195345
0.0188751608399
0.0175076399935
0.0151638091884
0.0119840921622
0.0150800340721
0.0174197325224
0.0202252735269
0.021940641122
0.0228785183167
0.023361018209
0.023597121667
0.0237084401059
0.0237599909307
0.0237847684424
0.0237982120692
0.0238073175039
0.0238150193854
0.0238225518687
0.0238303945346
0.0238387241922
0.0238476115536
0.0238570500106
0.0238670324838
0.0238774954859
0.0238883891961
0.0238997274409
0.0239113946896
0.0239232833099
0.0239353101126
0.0239473565209
0.0239592179617
0.0239705454871
0.0239805781745
0.0239876488403
0.0239879450192
0.0239731134167
0.0239251424946
0.023807987195
0.0235520130669
0.0230331777634
0.0220419409097
0.020266409378
0.017411393542
0.0150124866428
0.0173102657821
0.0202206089562
0.0238175169064
0.0261420545306
0.0274881926485
0.0282210660022
0.0285997024111
0.0287862157336
0.0288744393282
0.0289151554093
0.0289341156534
0.0289436487678
0.0289493661902
0.0289536859115
0.0289577115879
0.0289619801992
0.0289666417063
0.0289718073883
0.0289774647358
0.0289836365005
0.0289902811468
0.0289974257625
0.0290049955052
0.0290128906732
0.0290210476191
0.0290293028481
0.02903734819
0.0290445644877
0.0290495481057
0.0290492145802
0.0290367403043
0.0289979087049
0.0289040029293
0.028700911423
0.0282912854541
0.0275128368294
0.0261110914453
0.0237380329175
0.0201230388245
0.0171918413288
0.0185832930745
0.0219321707472
0.0261383606645
0.0289613633594
0.0306664552535
0.0316363443294
0.0321601297795
0.032429139904
0.0325610013668
0.0326230139085
0.0326513823987
0.0326643272549
0.0326705763782
0.0326740945037
0.0326765894492
0.0326787933775
0.0326811872223
0.0326839992029
0.0326873296734
0.0326911700575
0.0326955651874
0.0327004828423
0.0327059066
0.0327117486502
0.0327178944346
0.0327241204514
0.0327299521089
0.032734386874
0.0327351695504
0.0327274265021
0.0327009104861
0.0326350732452
0.0324905709728
0.0321968681481
0.0316340326657
0.0306125218098
0.0288512388429
0.0259890888141
0.0217846331239
0.0184360647658
0.0192571771949
0.0228673665835
0.0274813904679
0.0306632811672
0.032643708502
0.0338067534624
0.0344558339221
0.0348002422071
0.0349743326252
0.0350582962183
0.0350971940401
0.0351146574363
0.0351224216205
0.0351260082658
0.0351279342492
0.0351292352691
0.0351305847461
0.0351323402197
0.0351346150064
0.0351374591083
0.0351408932733
0.0351449193003
0.0351494943753
0.0351545378963
0.0351599037956
0.0351652622783
0.0351699533639
0.035172524725
0.0351698292646
0.0351552124333
0.0351151227751
0.035023391166
0.0348317378462
0.0344570176374
0.0337635337601
0.032545512469
0.0305097174075
0.0272963163657
0.0226951233674
0.0190954113885
0.0195980230915
0.0233483051212
0.0282120830323
0.0316307331121
0.0338041189388
0.0351097343789
0.0358559499355
0.0362615407866
0.0364714607827
0.0365749683167
0.0366237802502
0.0366458397292
0.0366554801408
0.0366596294865
0.0366614693778
0.0366625939132
0.0366638555549
0.0366655373479
0.0366677803355
0.0366706682939
0.0366742064647
0.036678411445
0.0366832148723
0.036688537635
0.0366941573172
0.0366996906197
0.036704248704
0.0367059574976
0.0367008471007
0.0366807041336
0.0366292084392
0.0365156657236
0.0362851506955