/*--------------------------------*- C++ -*----------------------------------*\
| =========                 |                                                 |
| \\      /  F ield         | foam-extend: Open Source CFD                    |
|  \\    /   O peration     | Version:     4.1                                |
|   \\  /    A nd           | Web:         http://www.foam-extend.org         |
|    \\/     M anipulation  |                                                 |
\*---------------------------------------------------------------------------*/
FoamFile
{
    version     2.0;
    format      ascii;
    class       volScalarField;
    location    "0.7";
    object      k;
}
// * * * * * * * * * * * * * * * * * * * * * * * * * * * * * * * * * * * * * //

dimensions      [0 2 -2 0 0 0 0];

internalField   nonuniform List<scalar> 
96000
(
0.00495084777348
0.00506760212472
0.00521905246001
0.00530425827884
0.00534516333037
0.00536391242939
0.0053723986051
0.00537644885302
0.00537864132541
0.00538015112431
0.00538143850954
0.00538270639863
0.00538402625361
0.00538542887573
0.00538692175943
0.00538850434416
0.00539017414374
0.0053919246622
0.00539374757838
0.00539562359523
0.00539754269523
0.00539952664917
0.00540153523246
0.00540354918954
0.00540556484944
0.00540756598043
0.00540953727254
0.00541145581438
0.00541328933203
0.00541498283232
0.00541640669613
0.00541728867793
0.00541695833017
0.0054139920485
0.00540515264953
0.00538392130485
0.00533712946528
0.00524221221156
0.00507862823987
0.00495231258199
0.00506735543602
0.00493662740303
0.00569928076955
0.00614616859512
0.00638467831482
0.00650739262134
0.00656793958627
0.00659690230373
0.00661060353726
0.00661754305199
0.00662162851711
0.00662469067739
0.00662747165371
0.00663031253752
0.00663333837347
0.00663660346176
0.00664012206913
0.00664389051154
0.00664790680837
0.00665212938142
0.00665653977975
0.00666113304143
0.00666585727915
0.00667066115274
0.00667551425445
0.00668037500498
0.00668514248593
0.00668970530701
0.00669383979358
0.00669705679162
0.00669829980947
0.00669535221908
0.00668339426461
0.00665323233131
0.00658688180561
0.00645334664355
0.00619787458166
0.0057318179307
0.00495608540443
0.0050684074552
0.0052182266944
0.00569803682942
0.00692926306639
0.00766203842029
0.00807648864876
0.00830444109602
0.00842485875948
0.00848603610718
0.00851607228302
0.00853075321081
0.00853821678015
0.00854251716369
0.00854550818666
0.00854802509488
0.00855049892958
0.00855320543051
0.00855619771161
0.00855950488187
0.00856311441968
0.00856700662862
0.00857115676498
0.00857556759275
0.00858017767743
0.00858492397545
0.0085897656364
0.0085946195809
0.00859934774612
0.00860370257569
0.00860715726528
0.00860864529432
0.00860580590766
0.00859398862897
0.00856385876882
0.00849871171112
0.00836866917912
0.00812559403148
0.00768983429988
0.00693564078595
0.00569364661877
0.00521447543244
0.00530304048333
0.00614413654925
0.00766104258278
0.00858813566815
0.00913424687044
0.0094483473003
0.00962234418881
0.00971492319521
0.00976228569892
0.00978600491158
0.00979798921293
0.0098044901073
0.00980856824239
0.00981166513056
0.00981441123322
0.00981709566658
0.00981998176961
0.00982320421534
0.00982677332124
0.00983066517329
0.00983487411932
0.00983937104156
0.00984410206094
0.00984900868779
0.00985401716554
0.00985900673473
0.00986376699137
0.0098678966876
0.00987052084801
0.00986986559378
0.00986226919623
0.00984071840452
0.00979201799981
0.00969368118258
0.00950788224483
0.0091765119894
0.00860727758604
0.00765863659072
0.00613155748687
0.00529672497749
0.00534373099721
0.00638207274239
0.00807475266224
0.00913347342789
0.00977555606589
0.0101566062668
0.0103748455885
0.0104949340536
0.0105583556948
0.010590908127
0.0106075018126
0.0106163349213
0.0106215770151
0.010625273095
0.0106283762104
0.0106312965691
0.0106343836176
0.0106378108182
0.0106415994502
0.0106457360118
0.0106502101227
0.0106549902327
0.0106600122039
0.0106652153499
0.0106705051524
0.0106757225246
0.0106805774801
0.0106844843381
0.0106862315424
0.0106833699235
0.0106710113957
0.0106401554353
0.0105745281886
0.0104474955984
0.0102160219636
0.00981640646669
0.00915025058987
0.00807009320799
0.00636666306872
0.00533611683183
0.00536238949049
0.00650447798348
0.00830220333821
0.00944704934583
0.010156116748
0.0105864578994
0.0108388130856
0.0109810936988
0.0110580463282
0.0110983715964
0.0111192085259
0.0111302663612
0.0111366771866
0.0111410232304
0.0111445190605
0.0111478882056
0.0111515031706
0.0111554548613
0.0111597750197
0.0111644534876
0.011169477118
0.0111748082392
0.0111803790716
0.0111861229341
0.011191919755
0.011197585764
0.0112027403154
0.0112066380343
0.0112077446202
0.0112030277666
0.011186589284
0.0111478353555
0.0110682431275
0.0109183063509
0.0106517953336
0.0102020205229
0.00946806665309
0.00830135732413
0.00649075632044
0.00535425283865
0.00537085468243
0.00656489846866
0.00842237632154
0.00962073644067
0.0103740355824
0.0108385262897
0.0111155026723
0.011274400079
0.0113618550873
0.0114084188704
0.0114327842538
0.0114457830525
0.0114532616797
0.0114582274368
0.0114623264958
0.0114663337181
0.0114705443043
0.0114750909907
0.0114800053323
0.0114852804962
0.0114909185008
0.0114968577571
0.0115030364966
0.011509367314
0.0115157258429
0.0115218818981
0.0115273938146
0.0115313838725
0.0115320522307
0.0115258973129
0.0115062472097
0.0114613264851
0.0113710281364
0.0112040193827
0.0109121988471
0.0104275509959
0.00964851248438
0.00842742878882
0.00655435170699
0.00536251132841
0.0053749345369
0.00659387692831
0.00848352599124
0.00971324406628
0.0104940418536
0.0109807273162
0.011274340691
0.0114448303085
0.011539852616
0.0115910744862
0.0116181767353
0.0116327545347
0.0116411719258
0.011647023048
0.0116519362838
0.0116566917478
0.0116616392281
0.0116669081476
0.0116725418011
0.0116785407433
0.0116848879891
0.0116915422999
0.0116984232879
0.0117054421849
0.0117124549809
0.0117192107338
0.0117252205074
0.0117295005253
0.0117300319556
0.0117229685813
0.0117010741119
0.0116517751047
0.011553920768
0.0113750676648
0.0110661065251
0.0105585432241
0.00975100817498
0.00849716397354
0.00658837571288
0.00536665435892
0.00537717824609
0.00660771398694
0.00851366529423
0.00976069801824
0.0105575564656
0.0110577854115
0.0113619063441
0.0115399761915
0.0116400905181
0.011694560262
0.0117236608357
0.0117395199169
0.0117490655187
0.0117558195832
0.0117615276537
0.0117670255172
0.0117726848552
0.0117786650682
0.0117850251388
0.011791755166
0.0117988278568
0.0118061990101
0.0118137914239
0.0118215022982
0.0118291918471
0.011836595896
0.0118431629193
0.0118478238799
0.0118484284349
0.0118408927981
0.0118175953237
0.0117654362012
0.0116626150058
0.0114760487891
0.0111561111659
0.0106342637856
0.00980947825092
0.0085365358224
0.00660751818434
0.00536899734313
0.00537875621404
0.00661486699197
0.00852853923632
0.00978463057053
0.0105903408266
0.0110983597791
0.0114087371441
0.0115914711091
0.0116948407438
0.0117514767388
0.0117820982978
0.0117992515634
0.0118098052153
0.0118174135016
0.0118238999284
0.0118301456872
0.0118365693262
0.0118433064903
0.0118504057777
0.0118578897476
0.0118657109469
0.0118738192244
0.0118821370036
0.011890584146
0.0118989846557
0.011907049541
0.0119142154707
0.0119193585127
0.0119202343509
0.011912596545
0.011888572761
0.0118347366513
0.0117288923134
0.0115375968087
0.0112109788233
0.0106805517955
0.00984559288676
0.00856149623856
0.00662034859601
0.00537072502942
0.00538012352452
0.00661921866594
0.00853624996174
0.00979689753901
0.0106072602949
0.0111195474673
0.0114334759945
0.0116189621265
0.0117243381782
0.0117825258911
0.0118144817623
0.0118326871042
0.011844121718
0.0118525226131
0.0118597861207
0.0118667905506
0.0118739366169
0.0118814215725
0.0118892685986
0.0118974884775
0.0119060421189
0.0119148824481
0.011923936536
0.0119330951471
0.0119421863778
0.0119509159093
0.011958699969
0.011964381924
0.0119656568679
0.0119581673563
0.0119338825586
0.0118791777644
0.0117716047496
0.0115775318085
0.0112469349034
0.0107114078915
0.00987035353882
0.00857942483083
0.00663022223148
0.00537219740393
0.0053814851742
0.0066225864519
0.00854083194685
0.00980373897266
0.0106164787804
0.0111310381962
0.0114469305103
0.0116340164291
0.0117407675774
0.011800249916
0.0118332568271
0.0118523596228
0.0118646195288
0.0118738060353
0.0118818021775
0.0118895400391
0.0118974410793
0.0119056566198
0.0119142453267
0.0119231965539
0.0119324920301
0.0119420646842
0.0119518242247
0.0119616715037
0.0119714403682
0.011980829524
0.011989242246
0.0119955003769
0.0119972521453
0.0119900738669
0.0119658271637
0.0119107633095
0.0118022634604
0.0116065939545
0.0112736036451
0.0107349391395
0.00988998722495
0.00859438514297
0.00663902231952
0.00537362434059
0.00538291119648
0.00662572682922
0.00854413290514
0.00980819558532
0.0106221569843
0.0111379381891
0.0114549308507
0.0116431033235
0.0117510006311
0.0118114877523
0.0118453741914
0.0118653137714
0.0118783334195
0.011888244088
0.0118969827847
0.0119054543266
0.0119140854192
0.0119230277664
0.0119323362456
0.0119420231082
0.0119520289068
0.0119622987153
0.0119727440861
0.0119832622945
0.0119936887531
0.0120037200708
0.0120127533891
0.0120195939791
0.0120218599922
0.0120150784832
0.0119910382517
0.0119358991815
0.0118269255932
0.0116302995193
0.0112957688375
0.0107549891073
0.00990723517232
0.00860796677409
0.0066472683016
0.00537503172192
0.00538443378437
0.00662897464492
0.0085470446964
0.00981170554444
0.0106263365455
0.0111428173394
0.0114605676354
0.01164973561
0.0117585394764
0.0118198831352
0.0118545907894
0.0118752745948
0.0118890145772
0.011899673792
0.0119091230849
0.0119183279764
0.0119276716929
0.011937332568
0.0119473603475
0.0119577482871
0.0119684388402
0.0119793697589
0.0119904723323
0.012001637592
0.0120126979092
0.012023350038
0.012032987651
0.0120404040106
0.0120431926656
0.0120368474165
0.0120130937037
0.0119580254285
0.0118488004083
0.0116515489617
0.0113158964468
0.010773489273
0.00992344436912
0.00862092892854
0.00665525480408
0.00537643508103
0.00538606215121
0.00663245864212
0.00855009978192
0.00981490318397
0.0106299610234
0.0111470127243
0.011465529082
0.0116555268174
0.0117651199773
0.011827270517
0.0118627083518
0.0118841155583
0.0118985954375
0.0119099526881
0.0119201272343
0.0119300301089
0.0119400781729
0.011950449357
0.0119611642787
0.0119722092738
0.0119835533818
0.0119951204414
0.0120068427641
0.0120186218796
0.0120302867589
0.0120415336286
0.0120517511052
0.0120597237109
0.0120630259269
0.0120571208198
0.012033676893
0.0119787316292
0.0118693514115
0.0116716065129
0.0113350112506
0.0107911858439
0.00993905863701
0.0086334514933
0.00666295456084
0.0053778073234
0.00538779642781
0.00663623180567
0.00855345648277
0.00981823806707
0.0106336180781
0.011151294574
0.0114704877225
0.0116612414718
0.0117715929865
0.0118344742431
0.0118706292451
0.0118927650531
0.0119079402163
0.0119200069503
0.0119308717002
0.0119414656747
0.0119522139919
0.0119632459342
0.0119746055512
0.0119862846652
0.0119982380277
0.012010408348
0.012022720403
0.0120350768249
0.0120473146037
0.0120591265255
0.0120698942604
0.0120783954413
0.0120821874417
0.0120766996142
0.0120535540045
0.0119987289223
0.0118892061008
0.0116910026117
0.0113535145006
0.0108083404894
0.00995419177536
0.00864555820433
0.00667031905978
0.00537920648586
0.00538963072078
0.00664031873276
0.00855716471575
0.00982194731837
0.0106376199705
0.0111558998546
0.0114757291084
0.0116672221133
0.0117782878362
0.0118418851161
0.0118787590635
0.0119015881206
0.0119174569303
0.0119302051683
0.0119417464245
0.0119530263838
0.0119644122914
0.0119760776302
0.0119880449361
0.0120003208778
0.0120128518181
0.0120255851525
0.012038452492
0.0120513530315
0.0120641261115
0.0120764649211
0.0120877472785
0.0120967406893
0.0121009822615
0.012095873988
0.0120729869001
0.0120182483345
0.0119085446438
0.0117098543338
0.0113714561012
0.0108249301761
0.00996878764427
0.00865713405244
0.00667725340906
0.00538117839531
0.00539156157485
0.00664470128479
0.00856123417217
0.00982606185191
0.010642035815
0.0111609132892
0.0114813622414
0.0116735899751
0.0117853419675
0.0118496650432
0.0118872224807
0.0119107382971
0.0119272794045
0.011940692564
0.0119529067198
0.0119648087322
0.0119768156543
0.0119890662924
0.0120016117161
0.0120144379059
0.0120275101555
0.0120407682713
0.0120541493348
0.0120675562069
0.0120808249599
0.0120936493421
0.0121054016024
0.012114840324
0.0121194795296
0.0121146979371
0.0120920137126
0.0120372994613
0.0119273547029
0.0117281186471
0.0113887570452
0.0108408434994
0.00998271255462
0.00866805730427
0.00668364696818
0.00538376661197
0.00539357791166
0.00664935621393
0.00856565792988
0.00983057072662
0.0106468730207
0.0111663391882
0.0114874269887
0.0116803568741
0.0117928119877
0.0118578216196
0.0118960644256
0.0119202472169
0.0119374423118
0.0119515164806
0.0119643369088
0.0119768423581
0.0119894167005
0.0120022222663
0.0120152974489
0.0120286405133
0.0120422092836
0.0120559548816
0.0120698097457
0.0120836812803
0.0120974031244
0.0121106652006
0.0121228352686
0.0121326610993
0.0121376408087
0.0121331193266
0.0121105660493
0.012055803755
0.011945542963
0.0117456840548
0.0114052933744
0.0108559485383
0.00999581871735
0.00867817561724
0.00669088094062
0.0053869527544
0.00539566219245
0.00665425009606
0.00857039786742
0.00983546633128
0.0106521139004
0.0111721885483
0.0114939014122
0.0116875274586
0.0118006626585
0.0118663655082
0.0119052622932
0.0119300922095
0.0119479347632
0.0119626023412
0.0119760105024
0.011989066808
0.0120021775197
0.0120154923753
0.0120290600434
0.0120428783708
0.0120569082032
0.0120711013376
0.0120853909665
0.0120996824527
0.01211380803
0.012127453793
0.0121399829516
0.0121501355093
0.012155385891
0.0121510571348
0.0121285640327
0.0120736776348
0.0119630209852
0.0117624709043
0.0114209827095
0.0108701514299
0.0100080069893
0.00868824226348
0.00669940913633
0.00539079974759
0.00539780508056
0.00665936800356
0.00857542966526
0.00984072213783
0.0106577392862
0.0111784199803
0.0115007402944
0.0116950602801
0.0118088611494
0.0118752211568
0.0119147578879
0.0119402259269
0.0119586565533
0.0119738972482
0.0119878424305
0.0120014221042
0.0120150255024
0.0120288141524
0.0120428385682
0.0120570951408
0.0120715495177
0.012086150016
0.0121008305895
0.0121154935771
0.0121299689629
0.012143941412
0.0121567705107
0.0121671872723
0.0121726521572
0.012168455991
0.0121459633043
0.0120908964265
0.0119797845057
0.0117784768417
0.0114359216564
0.0108838319787
0.0100205534788
0.00869955472806
0.00670900950649
0.00539536586085
0.00540001159244
0.00666468299341
0.00858075525067
0.00984627933765
0.0106636821706
0.0111849587928
0.011507876307
0.011702873811
0.0118173180583
0.0118843205763
0.0119244854616
0.0119505487481
0.0119695386101
0.0119853138964
0.0119997705946
0.012013828772
0.0120278941337
0.0120421210222
0.0120565652973
0.0120712266224
0.0120860655141
0.0121010322597
0.012116057373
0.0121310411859
0.0121458140021
0.0121600609235
0.0121731411543
0.0121837824799
0.0121894257031
0.0121854221742
0.0121631665593
0.012108207037
0.0119969991803
0.0117952220136
0.0114520117728
0.0108988214975
0.0100344513725
0.008711942076
0.0067195296971
0.00540065033492
0.00540226454234
0.00667015888932
0.00858628516415
0.00985208066179
0.0106698632909
0.0111917289103
0.0115152463957
0.0117108923535
0.0118259588803
0.0118935956106
0.0119343518934
0.0119609686359
0.0119804927478
0.0119967676008
0.0120116985002
0.0120262082025
0.0120406977702
0.0120553318133
0.012070164509
0.0120851934433
0.0121003782305
0.0121156673635
0.012130989883
0.0121462483738
0.0121612762382
0.012175766775
0.0121890822409
0.0122003105128
0.0122068076041
0.0122036395499
0.0121819370044
0.0121272870867
0.0120159886859
0.0118137245089
0.0114696712568
0.0109152609256
0.0100495150104
0.00872528638847
0.00673086078428
0.00540652300718
0.00540453329309
0.00667572764756
0.00859194840393
0.00985805429739
0.0106762180712
0.0111986497662
0.0115227402791
0.0117190059227
0.0118346811176
0.011902914642
0.0119442310487
0.0119713774148
0.0119913998534
0.0120081484386
0.0120235211932
0.0120384495955
0.012053336851
0.0120683458193
0.0120835338968
0.0120988935323
0.0121143831055
0.0121299513429
0.0121455300075
0.0121610307018
0.0121763000456
0.0121913920774
0.0122058494124
0.0122181847585
0.0122256834994
0.0122233845271
0.0122023326073
0.0121479833079
0.0120366213999
0.0118338271916
0.011488840534
0.0109330763158
0.0100657398818
0.00873956177721
0.00674295344018
0.0054128541252
0.00540680675078
0.00668133095588
0.00859769294159
0.0098641038635
0.0106826309912
0.0112056046698
0.0115302107952
0.0117270690388
0.0118433223849
0.0119121092905
0.0119539514758
0.0119816007287
0.0120020893028
0.0120192795893
0.0120350684202
0.0120503862591
0.0120656399277
0.0120809948933
0.0120965024325
0.0121121551027
0.0121279090004
0.0121437176269
0.0121595265664
0.0121753412766
0.0121916275826
0.0122079802976
0.0122236578823
0.0122371747447
0.0122457802998
0.0122444226992
0.0122240852677
0.0121701192944
0.0120587369624
0.0118554240115
0.0115094547448
0.0109522829371
0.010083191575
0.00875486870983
0.00675590477878
0.00541959611602
0.00540907010686
0.00668691373326
0.00860342213659
0.00987011091652
0.0106889362053
0.0112123710321
0.0115374342215
0.0117348269889
0.0118515890096
0.0119208862319
0.0119632138291
0.0119913293371
0.0120122569396
0.012029857399
0.0120460324083
0.0120617133873
0.0120773041268
0.0120929700135
0.0121087588988
0.0121246624718
0.0121406413568
0.0121566645912
0.0121728548812
0.0121898259768
0.0122074151764
0.012225084765
0.0122420588906
0.0122568623536
0.0122666677537
0.0122663499911
0.0122468538548
0.0121933319635
0.0120820128251
0.0118782459172
0.0115313234868
0.0109727436322
0.0101018991915
0.00877133811663
0.00676984933872
0.00542677447429
0.00541130156185
0.00669240040806
0.00860898870335
0.00987585125864
0.0106948277027
0.0112185696734
0.0115439569475
0.0117417612418
0.0118589363403
0.0119286714935
0.0119714292794
0.0119999660921
0.0120212949139
0.012039272885
0.0120558009112
0.0120718107679
0.0120877033643
0.012103639685
0.0121196651944
0.0121357732273
0.0121519436534
0.0121682840565
0.01218562712
0.0122039163596
0.0122228030886
0.0122418567227
0.0122602302413
0.0122764075226
0.0122875083603
0.0122883409819
0.0122697974971
0.0122168592905
0.0121057073507
0.0119016283269
0.0115539184863
0.0109940048081
0.0101214936995
0.00878873848826
0.00678464544213
0.00543434781916
0.00541347823556
0.00669765637799
0.00861414550258
0.00988090380432
0.0106997140105
0.0112234468165
0.0115488903105
0.0117468687949
0.011864287777
0.0119343374974
0.0119774366327
0.0120063278903
0.0120280055298
0.0120463182504
0.0120631588157
0.0120794544127
0.0120956014986
0.0121117535443
0.0121279583195
0.0121442233038
0.0121605532591
0.0121779034527
0.012196504747
0.0122160625974
0.0122363086715
0.012256750156
0.0122765704082
0.0122941905827
0.0123066915296
0.0123088031972
0.0122912831523
0.0122391262608
0.0121283727409
0.0119242547713
0.0115760431728
0.0110151903813
0.0101412512129
0.00880652612262
0.00679984419867
0.00544218590279
0.00541556800531
0.00670242522521
0.00861835904809
0.00988437552624
0.0107023627948
0.0112254534107
0.0115503989969
0.0117481285989
0.0118654772387
0.0119356222024
0.0119789116054
0.0120080491494
0.0120299939839
0.0120485731427
0.0120656635535
0.0120821801136
0.012098508798
0.0121148029175
0.0121311120087
0.0121474670752
0.0121644134974
0.012182879755
0.0122026149056
0.0122234374358
0.0122449916284
0.0122668577792
0.012288128918
0.0123072048777
0.0123211090058
0.0123245490348
0.0123082446131
0.0122570860053
0.0121471090223
0.0119434900686
0.0115954904243
0.0110344360183
0.0101598816051
0.0088238154127
0.00681495560923
0.00545015062717
0.00541751028302
0.00670624968524
0.00862054421096
0.00988449856899
0.0107003047667
0.0112215354547
0.011544966792
0.0117416694705
0.0118583971431
0.0119282572912
0.0119714823641
0.0120006939395
0.012022778988
0.0120415222799
0.0120587669276
0.0120754083416
0.0120918206619
0.0121081492255
0.0121244591064
0.0121408934068
0.0121587620677
0.0121781883759
0.0121989596735
0.0122208888549
0.012243674404
0.0122668314352
0.01228944649
0.0123099018842
0.0123251977456
0.012330017091
0.0123150998611
0.012265344422
0.0121568130807
0.0119546795545
0.0116081468377
0.0110484602705
0.0101749329316
0.00883907457557
0.00682927174309
0.00545809357554
0.00541916642715
0.006708011696
0.00861828461087
0.00987753785091
0.0106886057855
0.0112057297355
0.0115258640109
0.0117202067392
0.0118353779255
0.0119043270219
0.0119470756824
0.0119760826187
0.0119981082049
0.0120168523838
0.0120341031766
0.0120507226195
0.0120670616727
0.0120832683867
0.0120994236989
0.0121161726191
0.0121347412499
0.0121549101814
0.0121764974434
0.0121993231073
0.0122231025296
0.0122473197496
0.0122710635948
0.0122927104341
0.0123092868699
0.0123155329339
0.0123022640736
0.012254521073
0.0121484889273
0.0119494474892
0.0116065907906
0.0110510225957
0.0101816170987
0.00884915225208
0.00684118852839
0.00546566559239
0.00542026463133
0.00670550849638
0.00860691743283
0.00985647239295
0.0106582424299
0.0111674254685
0.0114812974829
0.0116711417082
0.0117832986833
0.0118503842471
0.0118920464576
0.0119204531367
0.0119421372737
0.0119606601905
0.0119777188912
0.0119941173565
0.0120101849648
0.0120260673602
0.0120418662137
0.0120589373773
0.0120778834146
0.0120984581969
0.0121205097683
0.0121438931702
0.0121682756557
0.0121931889636
0.0122177064643
0.012240241443
0.0122579102836
0.0122655990764
0.01225434471
0.0122094824194
0.0121075222718
0.0119140577863
0.0115784101404
0.0110314649898
0.0101715814599
0.00884835816387
0.00684787074472
0.00547234941227
0.00542011075862
0.00669382767182
0.00857700104393
0.00980800077709
0.010592817176
0.01108796977
0.0113910417485
0.0115732053349
0.011680237399
0.0117441205259
0.0117838520427
0.0118111021703
0.0118320554968
0.0118500441753
0.011866625432
0.0118825276621
0.0118980472218
0.0119133246161
0.0119286896204
0.0119457838801
0.0119647348656
0.011985311284
0.012007412212
0.0120308636256
0.0120553791237
0.0120804685317
0.0121052773027
0.012128290602
0.0121467832378
0.012155912165
0.0121471228805
0.0121062949496
0.0120105815268
0.0118261927073
0.0115028780021
0.0109715334083
0.010129807089
0.0088258222541
0.0068432730284
0.00547691456077
0.00541726584729
0.00666375950582
0.00851180843169
0.00970961187354
0.0104656934627
0.0109378727489
0.0112237608148
0.0113939561996
0.011493133235
0.0115521265123
0.0115889006397
0.0116143528545
0.0116341297367
0.011651236462
0.0116670343435
0.0116821532415
0.0116968359178
0.0117112203744
0.0117260009998
0.0117427120506
0.0117611782218
0.0117812671522
0.0118028583375
0.0118258153971
0.0118498733729
0.0118745679423
0.0118990913801
0.0119220841719
0.0119410694145
0.0119516214847
0.011945804154
0.0119104182337
0.0118237252837
0.0116530479736
0.0113490268517
0.0108430493541
0.0100323349526
0.00876348069377
0.00681717179687
0.00547731934756
0.00540843522545
0.00659715226298
0.00838127891706
0.00952327963314
0.0102336436227
0.010670676216
0.0109311469059
0.0110840721404
0.0111721459257
0.0112243297394
0.0112569910378
0.0112799105144
0.0112979840757
0.0113137795083
0.0113284094545
0.0113423735487
0.0113558561813
0.0113689834388
0.0113831293907
0.0113991390739
0.0114167587894
0.011435898117
0.0114564732697
0.0114784016135
0.0115014008775
0.0115250905899
0.0115487403852
0.0115711803482
0.0115902698322
0.0116021261072
0.0115998253201
0.0115714058338
0.0114967942032
0.0113452690383
0.0110692227603
0.0106014317743
0.0098395588305
0.00862955434222
0.00674956402549
0.00546888828165
0.0053870696359
0.00646304697013
0.00813735488061
0.0091910075453
0.00983302549938
0.0102197766969
0.0104452267486
0.0105751258954
0.0106488117722
0.010692342929
0.0107198476377
0.0107395783476
0.0107554752301
0.0107695668282
0.0107826826396
0.0107951664137
0.0108071343096
0.0108188854707
0.0108321506712
0.0108470770753
0.010863446345
0.0108811818285
0.0109002420589
0.0109206054682
0.0109420220822
0.0109641368251
0.010986338956
0.0110076891081
0.0110264268738
0.0110394768543
0.011041014996
0.0110209417806
0.0109615393798
0.0108350223165
0.0105969398779
0.010183069462
0.00949342570711
0.00837574536532
0.00660889736374
0.00544392917111
0.00533989697569
0.00620652334275
0.00770016386499
0.00862021451091
0.00916511731525
0.00948384460087
0.00966404742295
0.00976533015745
0.00982173464596
0.00985510347962
0.00987656954048
0.00989248868394
0.0099056733403
0.00991757647147
0.00992869990947
0.00993925663228
0.00994929168315
0.00996003069486
0.00997236525123
0.0099860813022
0.0100010225891
0.0100171126084
0.0100343296074
0.0100527283859
0.0100721625519
0.010092274499
0.0101125294704
0.0101322430506
0.0101501740415
0.010164022811
0.0101694317847
0.0101584798214
0.0101167168732
0.0100206203664
0.00983082766221
0.00948882400925
0.00890060633005
0.00792099259022
0.00633867311146
0.00538738414836
0.00524436862528
0.00573917984904
0.00694412935085
0.00766934773315
0.00808229719033
0.00831409386798
0.00843967744773
0.00850808841621
0.0085454242583
0.00856777112423
0.00858259606709
0.00859406934871
0.00860386064325
0.00861281476507
0.00862117157878
0.00862902642428
0.00863720365492
0.00864703335791
0.00865811297758
0.00867030326593
0.00868350901911
0.00869764837195
0.00871266255936
0.00872869757189
0.00874573469903
0.00876334145698
0.00878110593611
0.00879860701682
0.00881503634872
0.00882901072889
0.00883761110244
0.00883556241974
0.00881248343295
0.00875074074332
0.008618884612
0.00836836976009
0.00791770362784
0.00713891827904
0.00585057378093
0.00527691970991
0.00508001160006
0.00496119622312
0.00569839249576
0.00613715567487
0.00637287479794
0.00649705315388
0.00656010221762
0.00659306231613
0.0066106248988
0.00662146195342
0.00662896525041
0.00663508137835
0.0066404063398
0.00664527698733
0.0066497613768
0.00665518269805
0.00666242709618
0.00667100566501
0.00668059519054
0.00669108803074
0.00670244400857
0.00671457018603
0.00672731565845
0.00674074337139
0.0067550339409
0.00676976681671
0.00678461138267
0.00679934420734
0.00681356665843
0.00682661823592
0.00683704982928
0.00684226850296
0.00683660552201
0.0068101420769
0.00674321876556
0.00660431612101
0.00633667312825
0.00585089631336
0.00503931018418
0.00509427273943
0.00495262600633
0.00506870759744
0.00521455771573
0.0052967248163
0.00533610309342
0.00535419658671
0.00536231220228
0.00536624132992
0.00536825861006
0.005369580483
0.00537055602633
0.0053714132997
0.00537218603515
0.00537341212098
0.00537561346911
0.00537868594755
0.0053822690412
0.00538635214901
0.00539099352907
0.00539618465801
0.00540187432981
0.00540798800833
0.00541445643938
0.00542125742472
0.00542842327798
0.00543583359373
0.00544335785779
0.00545092433119
0.0054583995624
0.00546563345471
0.00547233173932
0.0054780313503
0.00548159092277
0.00548105663107
0.00547186809525
0.00544633615787
0.00538924719216
0.00527775198281
0.0050925704731
0.00496419978402
0.00510742717375
0.00596226170053
0.00654316925801
0.00686492238219
0.00703306031095
0.00711774105428
0.00715890112544
0.0071787840103
0.00718867763136
0.00719428687293
0.00719816003058
0.00720145898252
0.00720465949533
0.00720795392416
0.00721141480474
0.00721505070826
0.00721887284194
0.00722286488826
0.00722699897836
0.0072312433858
0.00723558422149
0.00724004772054
0.00724456304036
0.00724908427433
0.007253595069
0.00725806466857
0.00726246024403
0.00726670191615
0.00727064957065
0.00727403204617
0.00727619058673
0.00727570639627
0.00726940511535
0.00725088953292
0.00720738630472
0.00711549132409
0.00693331652088
0.00659049195559
0.00598340733374
0.00510864243381
0.0059606931746
0.0104334272189
0.0125841942985
0.0137810029613
0.0144465875164
0.0148076671035
0.014996336916
0.0150919155708
0.0151393033609
0.0151633812674
0.015176728241
0.0151855389382
0.0151925900421
0.015199127821
0.0152056432668
0.0152123392131
0.0152192812659
0.015226468438
0.0152338929283
0.0152415021543
0.0152492755865
0.0152572230559
0.0152652768142
0.0152733550359
0.0152814064123
0.0152893220072
0.0152969566083
0.0153040042812
0.015309720069
0.0153125651265
0.0153090903881
0.0152922413786
0.0152477557889
0.0151491437077
0.0149487567438
0.0145665279713
0.0138686045108
0.0126306316358
0.0104334457759
0.00594339788317
0.00654001680134
0.0125820740779
0.01552636754
0.01723251375
0.0182280144903
0.0187970252087
0.019111165314
0.0192786992213
0.0193652812375
0.0194097635024
0.0194333948259
0.0194473759853
0.0194571599508
0.0194653995543
0.0194732636479
0.0194811361945
0.0194891835943
0.0194974917183
0.0195060374908
0.0195148014108
0.0195237604084
0.019532898666
0.0195421399939
0.0195513943248
0.0195605705811
0.0195694966587
0.0195778451269
0.019584936236
0.0195892868133
0.0195877679992
0.0195739433134
0.0195353083066
0.0194484923988
0.0192727964979
0.0189399942518
0.0183415931641
0.0173050083808
0.0155499869799
0.0125538301623
0.00651073965442
0.00686068712645
0.0137769696947
0.0172306507787
0.019293670315
0.0205385533049
0.0212763223349
0.0216995712867
0.0219339693285
0.0220592608146
0.0221249315928
0.0221595902203
0.0221790758019
0.0221915371085
0.0222010126376
0.0222093633267
0.0222176569438
0.0222261068175
0.0222347485793
0.0222436349417
0.0222527271971
0.0222620369127
0.0222715143903
0.0222810898267
0.022290668717
0.0223001104625
0.0223091557218
0.0223172746442
0.0223233415124
0.0223250240713
0.0223175800266
0.0222916362435
0.0222297928677
0.0221012080956
0.0218546013511
0.0214079804802
0.0206359821811
0.0193456703073
0.017231073508
0.0137260443321
0.00682514415402
0.00702825992884
0.0144411499609
0.018224564884
0.0205369985939
0.0219670709938
0.0228372482798
0.0233506249269
0.0236430969575
0.023803680014
0.0238895688614
0.0239351998357
0.0239603733398
0.0239756767212
0.0239865432271
0.023995603
0.0240042551926
0.0240129386932
0.0240217728678
0.0240308265139
0.0240401004613
0.0240495937057
0.0240592595212
0.0240690180011
0.024078759791
0.0240883051332
0.0240972839131
0.0241049540046
0.024109763986
0.0241085147706
0.0240949185667
0.0240570132069
0.0239733120297
0.0238071355745
0.0234996111392
0.0229597864085
0.0220525687705