/*--------------------------------*- C++ -*----------------------------------*\
| =========                 |                                                 |
| \\      /  F ield         | foam-extend: Open Source CFD                    |
|  \\    /   O peration     | Version:     4.1                                |
|   \\  /    A nd           | Web:         http://www.foam-extend.org         |
|    \\/     M anipulation  |                                                 |
\*---------------------------------------------------------------------------*/
FoamFile
{
    version     2.0;
    format      ascii;
    class       volScalarField;
    location    "0.7";
    object      nut;
}
// * * * * * * * * * * * * * * * * * * * * * * * * * * * * * * * * * * * * * //

dimensions      [0 2 -1 0 0 0 0];

internalField   nonuniform List<scalar> 
96000
(
0.000192849802451
0.000195246222467
0.000198266164796
0.000199962553871
0.000200783893726
0.000201165507058
0.000201340817938
0.00020142558408
0.000201471700265
0.000201503311457
0.000201529999213
0.000201556076772
0.000201583074798
0.000201611667786
0.000201642021157
0.000201674131896
0.000201707950338
0.000201743344647
0.000201780143406
0.000201817955833
0.000201856601188
0.000201896500356
0.000201936848211
0.000201977266377
0.000202017679186
0.000202057767596
0.000202097221161
0.000202135578627
0.000202172162931
0.000202205820826
0.000202233814235
0.000202250472662
0.000202241948251
0.000202179381956
0.000201997916078
0.000201568952073
0.000200634474508
0.000198750803278
0.000195490246394
0.000192884419472
0.000195240654231
0.000128809131989
0.000138592177226
0.000144059828439
0.000146927935414
0.0001484026423
0.000149135831255
0.000149490533145
0.000149661383079
0.000149753285621
0.000149808780645
0.000149850764538
0.000149888611868
0.000149926722607
0.000149966696732
0.000150009248496
0.000150054548912
0.000150102542967
0.000150153173456
0.000150205935262
0.000150260642626
0.000150317237538
0.000150375107784
0.000150433643054
0.000150492491788
0.000150551111456
0.00015060837058
0.000150662899071
0.000150711831908
0.000150749174712
0.000150761770946
0.000150722716907
0.000150574033212
0.000150206946559
0.000149409790714
0.000147816594909
0.00014476197176
0.000139084931304
0.000129145466735
0.00019527126129
0.000198248854958
0.000138576757329
0.000153011277817
0.000161042937077
0.000165456596737
0.000167863329221
0.000169138187589
0.000169791657089
0.00017011617652
0.000170276557307
0.000170358622524
0.000170405797798
0.000170438249017
0.000170465258639
0.000170494079972
0.000170529479563
0.00017056748146
0.000170608368153
0.000170651995153
0.000170698111777
0.000170746506814
0.00017079717681
0.000170849484083
0.000170902782948
0.000170956626437
0.000171010133776
0.000171061817222
0.000171108972257
0.000171145811511
0.000171160687659
0.000171128202666
0.000170999117266
0.000170675637375
0.000169984864108
0.000168616716938
0.000166063183417
0.000161438550289
0.000153186850015
0.000138604676092
0.000198183866301
0.000199937880354
0.00014403624129
0.000161032519504
0.000170641939778
0.000176106922024
0.000179206719366
0.00018092245979
0.000181841425528
0.000182316576267
0.000182557490179
0.000182680575006
0.000182747807743
0.000182789945713
0.000182821719991
0.000182849683386
0.000182876992325
0.000182910597727
0.000182950229557
0.000182992740989
0.000183037841541
0.000183085502074
0.000183135440235
0.000183187099126
0.000183239914548
0.000183293162197
0.000183345642936
0.000183395209246
0.000183437706486
0.00018346422622
0.000183456918533
0.000183379234932
0.000183162410875
0.000182678174254
0.00018170963782
0.000179888401569
0.000176632585897
0.000170953700165
0.000161129901133
0.000143982147182
0.000199824388136
0.000200755279273
0.000146899189912
0.000165440693923
0.000176099488551
0.000182311866637
0.000185937029478
0.000188005752331
0.000189149650804
0.00018975967053
0.000190076688842
0.000190240431291
0.00019032858773
0.00019038125036
0.000190418384827
0.000190449404743
0.000190478603902
0.000190513540703
0.000190554690239
0.000190598661328
0.000190645285127
0.000190694491991
0.000190745967004
0.000190799100193
0.000190853318287
0.000190907725259
0.00019096078154
0.000191009622406
0.000191048496278
0.000191065514548
0.000191037087515
0.000190916653671
0.000190619654212
0.000189994501661
0.000188793965139
0.000186612712097
0.000182828023931
0.000176399935134
0.000165531932138
0.000146827829597
0.000200617803498
0.000201135236471
0.00014837090726
0.000167843148354
0.000179196022957
0.000185933358392
0.000189945412459
0.000192284994489
0.000193608972441
0.000194331518187
0.000194714814711
0.000194915613855
0.00019502363283
0.000195086904271
0.000195129976855
0.000195164666742
0.000195201995057
0.000195244659595
0.000195289799741
0.000195337677688
0.000195388211404
0.000195441287443
0.000195496560009
0.000195553397148
0.000195611184781
0.000195668807263
0.000195724492841
0.000195774592244
0.000195811948658
0.000195821938031
0.00019577606677
0.000195619593225
0.000195255548889
0.000194515497021
0.000193131433235
0.000190675409155
0.000186502226079
0.000179548059459
0.000167987050411
0.000148329405207
0.000200988349026
0.000201310232921
0.000149102984594
0.000169116096781
0.00018090946598
0.000187999804546
0.000192283605866
0.000194821444182
0.000196281065227
0.00019709135523
0.00019752802338
0.000197759731676
0.000197885125447
0.000197958140062
0.000198007007599
0.000198051971519
0.000198098157493
0.000198145426314
0.000198195032427
0.000198247301895
0.000198302187309
0.000198359667082
0.000198419235278
0.000198480325988
0.000198542169983
0.000198603590761
0.000198662428464
0.000198714483201
0.000198751423544
0.000198756344879
0.000198696829895
0.000198511877053
0.000198095302347
0.000197266744244
0.000195744947547
0.000193088538572
0.00018864172928
0.000181331752564
0.000169326619842
0.000149104730056
0.000201160074079
0.00020139567175
0.00014945811732
0.000169769700437
0.000181828250947
0.000189143490216
0.000193606981934
0.000196281568264
0.000197837526904
0.000198711853014
0.00019918882769
0.000199444745939
0.00019958439081
0.000199666083356
0.000199730145602
0.000199784606734
0.000199836547771
0.000199889323753
0.000199944264015
0.000200001797643
0.000200061949523
0.00020012458957
0.000200189307429
0.000200255422175
0.000200322152263
0.000200388172873
0.000200451119366
0.00020050634012
0.000200544566508
0.000200547043021
0.000200478438905
0.000200273188184
0.000199818833604
0.000198927145888
0.000197308666927
0.000194514704635
0.000189885261773
0.000182346498806
0.000170069365784
0.000149521388077
0.000201247274081
0.000201442882415
0.000149632181248
0.00017009558519
0.000182304659888
0.000189754782982
0.000194330911032
0.000197092944227
0.000198713669076
0.000199631867516
0.000200137381805
0.000200411202021
0.000200563884801
0.000200663089289
0.00020073479918
0.000200795430226
0.000200853001577
0.00020091111808
0.000200971339764
0.000201034196701
0.000201099656009
0.00020116754055
0.000201237439741
0.000201308672986
0.000201380363579
0.000201451179479
0.000201518622365
0.000201577543291
0.000201617932699
0.000201619857806
0.000201545971143
0.000201327560914
0.000200847992925
0.000199914094067
0.000198231687639
0.00019534832324
0.000190603334607
0.000182924214808
0.000170486898572
0.000149754115799
0.000201296314588
0.000201475920381
0.00014972707287
0.000170258215582
0.000182547936008
0.000190074292998
0.000194716819562
0.000197532340234
0.000199193281966
0.000200140312598
0.000200665246051
0.000200955629333
0.000201125958914
0.000201233365633
0.00020131178389
0.000201378374912
0.000201441579467
0.000201505319915
0.000201571057366
0.000201639305552
0.000201710225854
0.000201783502394
0.000201858697696
0.000201935139204
0.000202012066947
0.000202087915667
0.000202159995214
0.000202223002081
0.000202266437416
0.000202269538938
0.000202193591519
0.000201967816106
0.000201472984179
0.000200512930102
0.000198790872003
0.000195852667937
0.000191038070426
0.000183276437653
0.000170746867353
0.000149906441807
0.000201331797363
0.000201504252878
0.000149786140617
0.000170343063579
0.000182674032119
0.000190241340956
0.000194921102957
0.000197767696543
0.000199452958751
0.00020041796855
0.000200960440828
0.000201267498825
0.000201446451326
0.000201560841288
0.000201645372824
0.000201717773915
0.000201786545359
0.00020185558848
0.000201926741847
0.000202000356104
0.000202076558834
0.000202155066604
0.000202235453389
0.000202317091083
0.00020239903488
0.000202479734468
0.000202556439863
0.000202623669461
0.000202670625117
0.000202676010436
0.000202600190377
0.000202371078564
0.000201867894905
0.000200892603656
0.000199147134592
0.00019617644404
0.000191321043455
0.000183511325575
0.000170927599386
0.000150019420076
0.000201361128542
0.000201532233622
0.000149832145186
0.000170393375323
0.000182744804347
0.000190333343806
0.000195033315109
0.000197897444968
0.000199597121636
0.000200578080534
0.000201136617275
0.000201452273031
0.000201638349835
0.000201759078254
0.000201849474813
0.000201927298259
0.000202001422969
0.000202075883413
0.000202152268607
0.0002022311401
0.000202312504485
0.000202396202965
0.000202481686913
0.000202568228609
0.000202654948889
0.000202740326486
0.000202821553254
0.000202893032699
0.000202943777906
0.00020295210335
0.000202877820285
0.000202647983831
0.000202140878792
0.00020115726476
0.000199398493737
0.000196408823543
0.000191529475757
0.000183690951567
0.000171072968416
0.000150116497012
0.000201388842705
0.000201561357605
0.000149874549116
0.000170429253048
0.00018279083293
0.000190390304415
0.000195101269002
0.00019797539207
0.000199688210043
0.00020068394723
0.00020125062929
0.000201573237685
0.00020176568454
0.000201892107253
0.000201987856497
0.000202071051491
0.000202150418907
0.000202230056209
0.000202311542783
0.000202395433664
0.000202481863845
0.000202570432413
0.000202660668755
0.000202751857355
0.000202843102259
0.000202932895672
0.000203018409612
0.000203093991946
0.000203148518221
0.000203160053565
0.000203088020881
0.000202858914166
0.000202350380305
0.000201362405302
0.000199595937474
0.000196594752742
0.00019170046835
0.000183843051289
0.000171200385423
0.000150204393779
0.000201415468969
0.000201592324805
0.000149917678793
0.000170462360179
0.000182826814413
0.000190432148574
0.000195149431345
0.000198032833111
0.00019975997656
0.000200762959202
0.000201336320565
0.000201665116113
0.000201863138311
0.000201994864005
0.000202095982656
0.000202184244856
0.000202268753251
0.0002023533487
0.00020243976989
0.000202528545439
0.000202619701035
0.000202712837948
0.000202807456834
0.000202902965781
0.000202998435001
0.000203092341257
0.000203181858607
0.000203261306282
0.000203319464802
0.00020333420503
0.000203264702391
0.000203036990071
0.000202528293729
0.000201537937923
0.000199766716114
0.00019675778375
0.000191853029886
0.000183981525917
0.000171318388695
0.000150286915576
0.000201441389414
0.000201625325883
0.000149963172352
0.000170502105358
0.000182859457332
0.000190468320362
0.000195193690817
0.000198088742247
0.000199822390045
0.000200831451793
0.000201410811281
0.000201745035705
0.000201948344647
0.000202085345783
0.000202191423357
0.000202284724792
0.00020237404852
0.000202463426311
0.000202554596783
0.000202647916597
0.000202743375564
0.000202840730217
0.000202939406577
0.00020303883492
0.000203138150553
0.000203235814135
0.000203329001682
0.000203411996516
0.000203473513082
0.000203491281453
0.000203424258442
0.000203198081853
0.000202689652141
0.00020169774941
0.000199922983793
0.000196907952205
0.00019199468815
0.000184111132168
0.000171429126815
0.000150363885752
0.000201466066826
0.000201660370487
0.000150011711971
0.000170544415287
0.000182898124339
0.000190509041772
0.000195243168504
0.000198143434999
0.000199882794885
0.000200897428449
0.000201482159551
0.000201821588554
0.000202030072803
0.000202171980286
0.000202282963245
0.000202380987125
0.000202474957348
0.000202568951776
0.000202664422455
0.000202761870759
0.000202861322529
0.000202962456207
0.000203064813922
0.000203167794549
0.000203270548383
0.000203371591484
0.000203468081748
0.000203554254035
0.000203618779042
0.000203639261289
0.000203574428251
0.000203349609063
0.000202841377818
0.000201848024306
0.00020007002455
0.000197049382978
0.000192128283093
0.000184233316493
0.000171533021672
0.000150434865039
0.000201493712463
0.000201697338247
0.000150063524155
0.000170589814431
0.000182942943182
0.000190556012315
0.000195294673239
0.000198199659717
0.000199944405288
0.000200964213212
0.000201554116425
0.000201898624805
0.00020211197983
0.000202258665509
0.000202374277632
0.000202476811994
0.000202575252887
0.000202673341714
0.000202772789231
0.000202873979544
0.00020297702815
0.000203081567143
0.000203187183602
0.000203293317479
0.000203399111408
0.000203503106054
0.000203602462628
0.000203691393099
0.000203758501216
0.000203781246462
0.000203718182134
0.0002034943021
0.00020298591112
0.000201990747799
0.000200209266128
0.000197182870969
0.000192253907065
0.000184347713558
0.000171629067618
0.000150498827496
0.000201537033311
0.000201736153558
0.000150118419712
0.00017063839981
0.00018299101709
0.000190606062487
0.000195349029924
0.000198258485124
0.000200008453544
0.000201033189834
0.000201628195851
0.000201977495237
0.000202195572763
0.000202346808142
0.000202466832771
0.000202573719591
0.00020267611473
0.000202778043894
0.000202881020142
0.000202985601523
0.000203091788351
0.00020319932955
0.000203307779274
0.000203416621243
0.000203525026587
0.000203631523992
0.000203733284871
0.000203824485918
0.000203893671805
0.000203918144524
0.000203856307554
0.000203632811257
0.000203123676951
0.000202126146154
0.000200340650295
0.000197308016843
0.000192370819457
0.000184453306736
0.000171716169402
0.000150554688235
0.000201591552894
0.000201776588227
0.000150176109735
0.000170690059644
0.000183042193961
0.000190659231388
0.000195406296376
0.000198320212217
0.000200075160668
0.000201104821188
0.000201704642342
0.000202058646511
0.000202281243363
0.000202436812352
0.000202561097564
0.000202671807995
0.000202777887912
0.000202883178832
0.000202989329068
0.000203096838342
0.000203205778605
0.000203315868832
0.000203426736342
0.000203537849766
0.000203648414656
0.000203756950929
0.000203860612328
0.000203953548598
0.000204024236013
0.000204049862215
0.000203988620613
0.000203764844548
0.00020325430132
0.000202253727347
0.000200463534242
0.000197424042819
0.000192478115245
0.00018454897766
0.000171793148068
0.000150641443069
0.000201657110844
0.000201818288172
0.00015023617732
0.000170744396102
0.000183096322925
0.000190715340662
0.000195466507054
0.00019838473702
0.000200144557407
0.000201178937121
0.000201783520346
0.000202141964196
0.00020236885641
0.000202528595988
0.000202656610219
0.000202770884124
0.000202880187838
0.000202988489599
0.000203097377204
0.000203207415915
0.00020331868673
0.000203430932045
0.000203543795334
0.000203656755257
0.000203769014424
0.000203879089876
0.000203984118722
0.000204078225568
0.000204149837571
0.000204175985668
0.000204114722981
0.000203890029292
0.000203377407776
0.000202373093497
0.000200577570702
0.000197530580595
0.000192575335835
0.000184634322829
0.000171885436206
0.000150739762091
0.000201734767202
0.000201861076792
0.000150298445188
0.000170801183607
0.000183153194477
0.000190774193112
0.000195529361785
0.000198451703673
0.000200216278247
0.000201255220845
0.000201864275338
0.000202226977804
0.000202458002021
0.000202621440732
0.000202752929843
0.000202870329532
0.000202982541655
0.000203093444938
0.000203204698356
0.000203316893955
0.000203430107796
0.000203544119784
0.000203658562177
0.000203772924788
0.000203886401436
0.000203997504554
0.000204103372993
0.000204198115344
0.000204270106355
0.000204296275133
0.000204234478658
0.000204008366961
0.000203493186532
0.000202484627511
0.000200683223956
0.000197631365437
0.000192676070229
0.00018474449204
0.00017199582352
0.000150847663976
0.000201825446902
0.000201905049252
0.000150362632665
0.000170860347988
0.000183212281754
0.000190835213111
0.000195594209477
0.000198520505929
0.000200289670468
0.000201332956314
0.000201946316337
0.000202313119011
0.000202547919049
0.00020271477502
0.000202849388929
0.000202969629788
0.00020308434913
0.000203197524986
0.000203310787385
0.0002034247686
0.000203539570323
0.000203654951295
0.000203770563814
0.000203885887544
0.000204000117308
0.000204111782744
0.000204218042656
0.000204313013316
0.000204385072352
0.000204411009815
0.00020435137866
0.000204132429492
0.000203622460844
0.000202617825746
0.000200817438695
0.000197765509456
0.000192804079721
0.000184867563375
0.000172113832561
0.000150963687177
0.000201929078683
0.000201949850408
0.000150428242879
0.000170921045146
0.000183273000258
0.000190897692392
0.000195660364135
0.000198590540538
0.00020036405146
0.000201411492762
0.000202029026677
0.00020239962384
0.000202637856222
0.000202807872043
0.000202945288646
0.000203068027028
0.000203184963509
0.000203300059108
0.000203415011621
0.000203530453322
0.000203646482198
0.000203762857997
0.000203879236318
0.000203995105628
0.000204109697141
0.000204221584664
0.000204328019953
0.000204423175831
0.00020450758388
0.000204547569838
0.000204498723116
0.000204283346523
0.00020377525568
0.0002027698938
0.000200966362793
0.000197909358201
0.000192941218507
0.000184998436337
0.000172238736632
0.000151086844306
0.000202043398841
0.000201994885023
0.000150494545381
0.000170982565519
0.000183334686781
0.000190961018313
0.000195727095507
0.000198660901652
0.000200438495641
0.000201489928619
0.000202111324857
0.000202485436149
0.000202726866832
0.000202899729785
0.000203039687716
0.000203164622705
0.000203283468439
0.000203400207597
0.0002035165394
0.000203633124817
0.000203750034382
0.000203867037357
0.000203983812955
0.0002040998967
0.000204214614929
0.000204326710063
0.000204445240382
0.000204558791938
0.000204651231023
0.000204698092236
0.000204655147988
0.000204444076715
0.000203937968471
0.000202932155385
0.000201125349464
0.000198062862153
0.000193087415726
0.000185137279179
0.000172370480671
0.000151216691974
0.000202166084098
0.000202039937061
0.000150560891133
0.000171044356366
0.000183396435402
0.0001910241258
0.000195793313906
0.000198730265355
0.000200511656643
0.000201566783517
0.000202191689019
0.000202569014692
0.000202813387278
0.000202988812558
0.000203131023478
0.000203257900065
0.000203378380814
0.000203496474445
0.000203613907151
0.000203731309484
0.000203848769727
0.000203966065253
0.000204082942724
0.000204199080707
0.000204316554548
0.000204448143398
0.000204578326564
0.000204700367979
0.000204801026005
0.000204855543941
0.000204819112528
0.000204612929858
0.000204109447305
0.000203103607569
0.000201293793317
0.000198225783497
0.000193242983547
0.000185284840127
0.000172510115813
0.000151354259069
0.000202296236153
0.000202084714285
0.000150626643128
0.000171105451603
0.000183457063917
0.000191085441316
0.000195856991908
0.000198796507885
0.000200581147282
0.000201639386122
0.000202267405835
0.000202647590214
0.00020289458205
0.000203072311289
0.000203216497304
0.000203345046567
0.000203466912511
0.000203586091367
0.00020370431805
0.00020382221501
0.000203939887647
0.000204057183197
0.000204174013561
0.000204295403891
0.000204432785602
0.000204573275899
0.000204712634879
0.00020484381649
0.000204953513803
0.000205016474853
0.000204987367661
0.00020478704595
0.000204286829203
0.000203281746859
0.000201469628208
0.000198396677549
0.000193406989569
0.00018544141299
0.000172658953776
0.000151501102993
0.000202434233879
0.000202128785836
0.000150690889194
0.000171164289896
0.000183514321478
0.000191141989574
0.000195914502926
0.000198855357395
0.000200642145474
0.000201702640088
0.0002023331205
0.000202715666675
0.000202964878046
0.000203144575756
0.000203290445308
0.000203420378794
0.000203543334267
0.000203663295137
0.000203781977737
0.000203900011922
0.000204017551086
0.000204134628254
0.000204255241969
0.000204395823232
0.000204542229023
0.000204691829265
0.000204840902567
0.000204981998779
0.000205101486248
0.000205173701516
0.000205152831506
0.000204959332926
0.000204463539176
0.000203460308159
0.000201647278108
0.000198570962723
0.000193575602815
0.000185603953756
0.000172814988547
0.000151655852516
0.000202579228723
0.000202171701986
0.000150752058553
0.000171218173349
0.000183563960633
0.000191188005864
0.00019595864543
0.000198898413931
0.000200685275846
0.000201746509382
0.000202378341621
0.00020276245593
0.00020301329804
0.000203194509762
0.000203341693761
0.00020347267055
0.000203596361115
0.000203716721486
0.000203835436423
0.000203953176688
0.000204070246454
0.000204186982409
0.00020432704294
0.000204476131115
0.000204631340005
0.000204790514565
0.000204949484998
0.000205100910043
0.000205230766942
0.000205313056258
0.000205301440901
0.000205115592272
0.00020462590411
0.00020362655219
0.000201815151161
0.000198738303784
0.00019374083648
0.00018576587027
0.00017297303041
0.000151813861644
0.000202728841515
0.000202212795049
0.000150806982368
0.00017126125171
0.000183596931867
0.000191211474835
0.000195974689359
0.000198908562137
0.00020069178159
0.000201750984112
0.000202382222418
0.000202766569031
0.000203018102181
0.000203200134101
0.000203348068857
0.000203479582715
0.000203603498185
0.00020372370064
0.000203841888574
0.00020395878915
0.000204074957993
0.000204205539959
0.000204354048838
0.000204510974112
0.000204674954382
0.000204843369537
0.000205012436615
0.000205174294613
0.000205314689654
0.000205407257287
0.000205405505316
0.000205228901802
0.000204747402813
0.000203755305276
0.000201950199092
0.000198878881815
0.000193885881998
0.000185914759799
0.000173124134612
0.000151969526148
0.000202880381756
0.000202250816538
0.000150849983447
0.000171281772285
0.000183595427421
0.000191188676058
0.000195934018382
0.000198853332136
0.000200626235058
0.000201678628713
0.000202305975227
0.000202688349757
0.000202939104411
0.0002031209095
0.000203268781134
0.00020340010086
0.000203523524146
0.000203642845596
0.000203759733854
0.000203875071117
0.000203992368789
0.000204137010843
0.00020429191081
0.000204455857087
0.000204627553968
0.000204804620514
0.000204982921228
0.000205154489033
0.000205304960644
0.000205407855125
0.00020541662446
0.000205250984942
0.000204781219193
0.000203802046006
0.000202011453692
0.000198956166031
0.000193980586967
0.000186027243622
0.000173252598033
0.000152114592239
0.000203030895014
0.000202282867053
0.000150867336315
0.000171253863833
0.000183522359596
0.000191072700955
0.00019578148381
0.000198671360007
0.000200422765493
0.000201460443659
0.000202078578011
0.000202455490984
0.000202703153505
0.000202883127896
0.000203029685462
0.000203159716197
0.000203281586319
0.000203398916022
0.00020351340751
0.000203626126871
0.000203753690569
0.00020390269065
0.000204062423703
0.000204231844986
0.000204409707163
0.000204593764776
0.000204779657148
0.000204959445278
0.000205118780202
0.000205231444222
0.000205251443084
0.000205099277602
0.000204646495658
0.000203689029549
0.000201926009704
0.000198904448074
0.000193968320975
0.000186057966183
0.000173326192932
0.000152230329557
0.000203173422577
0.000202303303711
0.000150832311871
0.000171128264901
0.000183309005665
0.000190778966587
0.000195420122176
0.000198256500718
0.000199968918622
0.000200979842816
0.000201580862634
0.000201947278775
0.000202188658771
0.00020236463393
0.000202508260682
0.000202635627017
0.00020275460536
0.000202868627007
0.00020297939252
0.000203088207266
0.000203225018615
0.000203376209657
0.000203538477644
0.000203710969556
0.000203892641134
0.000204081027034
0.000204272012202
0.00020445764459
0.000204623916559
0.000204745381259
0.000204777319053
0.000204642089783
0.000204213703299
0.000203290745819
0.000201574959982
0.000198614631748
0.00019375309667
0.00018592827728
0.000173287235366
0.000152283759646
0.000203297667493
0.000202297848266
0.000150686014965
0.000170806264269
0.000182826260783
0.000190155021066
0.000194680674111
0.000197427732157
0.000199075805205
0.000200042966822
0.000200616028521
0.000200965167983
0.000201195937895
0.000201365032654
0.000201503552364
0.00020162636268
0.000201740671724
0.000201849622387
0.000201954894317
0.000202064876613
0.000202203526328
0.000202354415155
0.000202516503291
0.000202689237777
0.00020287149166
0.000203061020779
0.000203253699546
0.000203442057875
0.000203612753475
0.000203741678849
0.000203786343867
0.000203672374953
0.000203278120662
0.00020240704845
0.000200765599087
0.000197905406816
0.000193170996675
0.000185497449605
0.000173025950314
0.000152204930892
0.000203379060584
0.000202237397184
0.000150319698346
0.00017011501156
0.00018185734243
0.000188953945856
0.00019329557886
0.000195904056322
0.000197454312805
0.000198356136767
0.000198887887327
0.000199211732402
0.000199427094484
0.000199586209173
0.000199717404307
0.000199833837855
0.00019994183968
0.000200044092379
0.000200142261759
0.000200253990615
0.000200389793667
0.000200537441845
0.000200696340708
0.000200865914086
0.000201045267358
0.00020123229378
0.000201423127592
0.00020161075833
0.000201783067496
0.000201917978954
0.000201976369851
0.000201888812123
0.000201540577018
0.000200743239608
0.000199211384349
0.000196503185955
0.000191967955596
0.000184540945578
0.000172360842755
0.000151876321472
0.000203377299033
0.00020205608693
0.000149520036007
0.000168742850439
0.000180032381099
0.000186769121668
0.000190835447063
0.000193242830999
0.00019465442906
0.000195465559283
0.000195941021126
0.000196230775184
0.000196425450976
0.000196571113043
0.000196692387789
0.000196800258521
0.000196899904459
0.000196993470642
0.00019708260469
0.00019719826179
0.000197329531111
0.000197471896735
0.000197625009735
0.000197788530524
0.000197961904509
0.000198143018155
0.000198328555616
0.000198512183199
0.00019868333516
0.000198822659939
0.000198895490194
0.000198839983927
0.000198550837732
0.000197851591422
0.000196470594272
0.000193978177658
0.000189734729343
0.000182682980179
0.000170970553742
0.000151068538697
0.000203200634122
0.000201624930294
0.000147922099632
0.000166182852832
0.000176770837875
0.000182978764526
0.00018665618611
0.000188788987519
0.0001900169931
0.00019071141768
0.000191116126162
0.000191363936539
0.000191533454
0.000191662826861
0.000191772100354
0.000191869726834
0.000191959494175
0.00019204292
0.000192128289559
0.000192242175362
0.000192367350608
0.000192502729411
0.000192648026283
0.000192803170054
0.000192968055331
0.000193140848591
0.000193318439863
0.000193495409033
0.000193663073417
0.000193805290085
0.000193893655612
0.000193874996688
0.00019365776887
0.000193082423243
0.000191897822917
0.000189695623439
0.000185858331718
0.00017935030491
0.000168352609947
0.000149414422301
0.00020269933263
0.000200684066986
0.000144858814329
0.00016154753784
0.000171082141674
0.000176540632146
0.000179690846317
0.000181466792227
0.000182464974121
0.000183018299682
0.000183339860073
0.000183539095662
0.000183679413748
0.00018378941759
0.000183884122613
0.000183969033348
0.000184046655273
0.000184117956562
0.000184212495148
0.000184322186844
0.000184441818497
0.000184570529455
0.000184707954209
0.000184854097952
0.000185009534249
0.000185173128774
0.000185341727027
0.000185510526173
0.000185672968691
0.000185817072373
0.000185920852458
0.000185942464093
0.000185807037257
0.000185378588455
0.000184436019441
0.000182605282404
0.000179309418805
0.000173560301177
0.000163619739919
0.000146235483746
0.000201580321061
0.000198790221458
0.000139171782871
0.000153282123007
0.000161243546349
0.00016565571084
0.000168110949003
0.000169441234137
0.000170166181473
0.000170558750933
0.000170787940325
0.000170933114389
0.000171039352136
0.000171125012894
0.000171199636726
0.000171266124047
0.000171325880912
0.000171401847207
0.000171498052594
0.000171603947936
0.000171718505772
0.000171841193335
0.00017197148934
0.000172109016495
0.000172255103875
0.000172409723518
0.000172569019599
0.000172728978778
0.000172885288643
0.00017302969738
0.000173147821292
0.000173209645311
0.00017316122322
0.000172897248423
0.00017223991816
0.000170870458715
0.000168284062391
0.000163589293279
0.000155220041176
0.000140374667526
0.000199402140677
0.000195516564599
0.000129212630787
0.000138666854167
0.000144051327055
0.000146902097663
0.000148403132323
0.000149169013682
0.000149569841834
0.000149780686501
0.000149906338983
0.000149988470366
0.000150051408565
0.000150102846738
0.000150147262357
0.000150185710865
0.000150250515142
0.000150334544178
0.000150431131344
0.000150537185479
0.000150651706138
0.000150774408411
0.00015090445461
0.000151040397821
0.000151182934399
0.000151333979727
0.000151489256852
0.00015164512886
0.000151799061363
0.000151946396984
0.000152079409623
0.000152181006845
0.000152220799329
0.000152132761142
0.000151802540433
0.000151003987352
0.000149370000262
0.000146219005097
0.000140382587986
0.000130119407734
0.000195775239619
0.000192891087165
0.000195275940803
0.000198185712001
0.000199824812029
0.000200618873885
0.00020098926919
0.000201157705713
0.000201239922855
0.000201281626864
0.00020130811191
0.000201326644653
0.000201342175869
0.00020135549962
0.00020138320607
0.000201429400917
0.000201491565262
0.000201563638064
0.000201645140863
0.000201736962798
0.000201838885748
0.000201949970554
0.000202068859367
0.0002021942497
0.000202325710674
0.000202463751833
0.000202606129656
0.000202750405856
0.000202895163906
0.000203037794916
0.000203175357618
0.000203301920919
0.000203408247811
0.000203471457346
0.000203452882432
0.000203262744996
0.000202751254214
0.000201622047803
0.000199423613351
0.000195745788676
0.000193128939332
0.000195956970369
0.000212076544655
0.000222433236949
0.000228026895232
0.00023093534468
0.000232408573883
0.00023313278765
0.000233487080398
0.000233665051864
0.000233765906742
0.000233834710718
0.000233892438182
0.00023394776767
0.00023400432029
0.000234063449891
0.000234125395654
0.000234190342316
0.000234258028302
0.000234328006471
0.000234399747182
0.000234473011119
0.000234548209748
0.000234624179659
0.000234700179631
0.000234775917979
0.000234850841931
0.000234924361401
0.000234995077484
0.00023506043323