/*--------------------------------*- C++ -*----------------------------------*\
| =========                 |                                                 |
| \\      /  F ield         | foam-extend: Open Source CFD                    |
|  \\    /   O peration     | Version:     4.1                                |
|   \\  /    A nd           | Web:         http://www.foam-extend.org         |
|    \\/     M anipulation  |                                                 |
\*---------------------------------------------------------------------------*/
FoamFile
{
    version     2.0;
    format      ascii;
    class       volScalarField;
    location    "0.7";
    object      p;
}
// * * * * * * * * * * * * * * * * * * * * * * * * * * * * * * * * * * * * * //

dimensions      [1 -1 -2 0 0 0 0];

internalField   nonuniform List<scalar> 
96000
(
5265.35945086
5265.21285715
5264.95330788
5264.53597964
5264.01570725
5263.35059001
5262.57946224
5261.68158187
5260.67901319
5259.56633624
5258.35664519
5257.05266038
5255.66421478
5254.19791589
5252.66300197
5251.06801556
5249.4225418
5247.73622205
5246.01916512
5244.28168051
5242.53432547
5240.78774987
5239.05273029
5237.34000695
5235.66032909
5234.02418197
5232.44211206
5230.92387706
5229.47987038
5228.11824311
5226.84994987
5225.67964524
5224.62107669
5223.67154411
5222.85222575
5222.14724904
5221.59067063
5221.15140269
5220.87204688
5220.7254002
5265.1920725
5265.0443947
5264.7804342
5264.35932062
5263.83782963
5263.17269639
5262.40166278
5261.50399922
5260.50106488
5259.3878226
5258.17708387
5256.87184983
5255.48188496
5254.0139504
5252.47729635
5250.88054497
5249.23330506
5247.54525829
5245.82653249
5244.08746522
5242.33862522
5240.59062829
5238.85426795
5237.14028638
5235.45938618
5233.82203182
5232.23868844
5230.71905509
5229.27335301
5227.90962239
5226.6384567
5225.46433481
5224.40038888
5223.44367098
5222.61487095
5221.8975298
5221.32714152
5220.86828162
5220.57076564
5220.38781432
5264.88896997
5264.73710134
5264.46476045
5264.03176665
5263.4998054
5262.82509845
5262.04468286
5261.13822673
5260.12584346
5259.00299111
5257.78180534
5256.46561741
5255.0639725
5253.5838317
5252.03443104
5250.4245211
5248.76376654
5247.06195472
5245.32928729
5243.57620195
5241.81331097
5240.05135266
5238.30117539
5236.57356886
5234.87930834
5233.2289081
5231.63286504
5230.10093873
5228.64330613
5227.26811314
5225.98574578
5224.80090572
5223.7262157
5222.7590537
5221.9192779
5221.19001672
5220.60661129
5220.1291612
5219.81400198
5219.60606607
5264.40407969
5264.24824515
5263.96381358
5263.51731955
5262.97149647
5262.28326039
5261.48873741
5260.5679916
5259.54010365
5258.40094447
5257.16212266
5255.82728555
5254.40583931
5252.90496897
5251.33395957
5249.70174516
5248.01811077
5246.29299629
5244.53673992
5242.75991249
5240.97326087
5239.18764242
5237.41404207
5235.66335423
5233.94645495
5232.27394952
5230.65638792
5229.10360455
5227.62574389
5226.23103244
5224.92967655
5223.72653636
5222.63389378
5221.64945497
5220.79285929
5220.04745265
5219.4496065
5218.95747404
5218.63256788
5218.41238067
5263.79583856
5263.6387527
5263.34389332
5262.88362256
5262.32147624
5261.61552832
5260.801642
5259.8604167
5258.81030595
5257.64756128
5256.38342375
5255.02180856
5253.57204408
5252.04153933
5250.43968669
5248.77563378
5247.05934136
5245.30095707
5243.51101569
5241.70028778
5239.87970471
5238.06032946
5236.25331659
5234.46973049
5232.72061826
5231.01674366
5229.36879802
5227.78677198
5226.28089457
5224.85956603
5223.53296726
5222.3061929
5221.19131286
5220.1863428
5219.3105222
5218.54739112
5217.93304184
5217.4255383
5217.0877288
5216.85935615
5263.01886326
5262.86167115
5262.55738165
5262.08368019
5261.50391959
5260.777574
5259.94043138
5258.9736068
5257.89530885
5256.70213584
5255.40521121
5254.00872471
5252.52207214
5250.95293284
5249.31088567
5247.60534033
5245.84650254
5244.04478051
5242.2109706
5240.35609808
5238.49135097
5236.62803873
5234.77755083
5232.95118174
5231.16019568
5229.41556625
5227.72817212
5226.10819531
5224.56600241
5223.11017714
5221.75095995
5220.49365464
5219.35028966
5218.31919364
5217.41944239
5216.63512925
5216.00198136
5215.47957135
5215.12948546
5214.89768264
5262.11571305
5261.95860021
5261.64512783
5261.15744669
5260.55846525
5259.8089009
5258.94476832
5257.94763181
5256.83577117
5255.60609619
5254.26980559
5252.83138181
5251.30040264
5249.68484398
5247.99454243
5246.23922133
5244.42938492
5242.57575518
5240.68944612
5238.78178697
5236.86427372
5234.94851711
5233.04619041
5231.16887146
5229.32809363
5227.53509245
5225.8009926
5224.13621915
5222.55135086
5221.05519924
5219.65816709
5218.36578795
5217.19017863
5216.12994998
5215.20412909
5214.39740201
5213.74496205
5213.20853219
5212.84725529
5212.61453834
5261.06353039
5260.90672945
5260.58478181
5260.08305153
5259.46385313
5258.68885482
5257.79453114
5256.76281162
5255.61232075
5254.34028053
5252.95816865
5251.47079946
5249.88805227
5248.21825939
5246.47160404
5244.65817643
5242.78885296
5240.87473013
5238.92729461
5236.95823688
5234.97941466
5233.00278852
5231.04036544
5229.10405294
5227.20569581
5225.35683192
5223.56887256
5221.85251696
5220.21860173
5218.67618203
5217.23588692
5215.90346611
5214.69122585
5213.59802784
5212.64296534
5211.81136448
5211.13781122
5210.58670344
5210.21368575
5209.98158448
5259.88681811
5259.7298294
5259.39877179
5258.88184077
5258.24074291
5257.43780252
5256.51012502
5255.43987587
5254.24621408
5252.92665487
5251.49310168
5249.95073343
5248.3098352
5246.57914575
5244.76926455
5242.89071017
5240.95478866
5238.973022
5236.95732275
5234.91979107
5232.87269351
5230.8283831
5228.7992419
5226.79754507
5224.83548593
5222.92493927
5221.07764019
5219.30459398
5217.61694129
5216.02400964
5214.53672483
5213.1610733
5211.90966461
5210.78161122
5209.79623284
5208.93948137
5208.24545217
5207.68114295
5207.29844725
5207.06891788
5258.57960052
5258.42235462
5258.08214172
5257.54935647
5256.885135
5256.05216699
5255.08835218
5253.97600304
5252.73498715
5251.36312214
5249.8728753
5248.26984137
5246.56481115
5244.76699093
5242.88747657
5240.93727361
5238.92817976
5236.87219885
5234.78172127
5232.66930682
5230.54767345
5228.42960705
5226.32790101
5224.25522996
5222.22416442
5220.24694067
5218.33564196
5216.50159705
5214.75627647
5213.1092879
5211.57189106
5210.15029789
5208.85748081
5207.69275719
5206.67574663
5205.79294622
5205.07796937
5204.5004628
5204.10823355
5203.88239854
5257.15658787
5256.99870633
5256.64855713
5256.09870299
5255.40974766
5254.5445433
5253.54189133
5252.3841714
5251.09207632
5249.66372353
5248.11224953
5246.44370686
5244.66947528
5242.79928819
5240.84480581
5238.81757773
5236.72995088
5234.59446165
5232.42402619
5230.23170586
5228.03070929
5225.83428627
5223.65567125
5221.50796065
5219.40412281
5217.35677055
5215.37835116
5213.4805277
5211.67511942
5209.97202191
5208.38286378
5206.91408374
5205.57908297
5204.37736458
5203.32894829
5202.4208129
5201.6861688
5201.09717522
5200.69736655
5200.47715473
5255.62095308
5255.46237147
5255.10189048
5254.53413191
5253.81916184
5252.91984906
5251.87602013
5250.67005647
5249.32359597
5247.83507153
5246.21838528
5244.48009744
5242.63226086
5240.68519567
5238.65119468
5236.54240968
5234.37179309
5232.152465
5229.89791152
5227.62173654
5225.33767148
5223.05945853
5220.80079431
5218.57521295
5216.39609082
5214.2764228
5212.22902259
5210.26588387
5208.39917624
5206.63907079
5204.99757346
5203.4813234
5202.10417362
5200.86575723
5199.78652677
5198.8538529
5198.10053611
5197.50125065
5197.09498863
5196.88206112
5253.98390824
5253.82447478
5253.45303808
5252.86640408
5252.12407104
5251.18887605
5250.10174827
5248.84502637
5247.44138689
5245.88959054
5244.20438711
5242.39289498
5240.46791143
5238.44040102
5236.32335219
5234.12957431
5231.87267807
5229.56641393
5227.22487948
5224.86225514
5222.49282375
5220.13083927
5217.79047531
5215.48570871
5213.23032594
5211.0376968
5208.92099382
5206.8925265
5204.96480316
5203.14825099
5201.45524861
5199.8926074
5198.47464801
5197.20108771
5196.0928437
5195.13761496
5194.3677791
5193.76052662
5193.34996129
5193.14659827
5252.25311766
5252.09285385
5251.71007135
5251.10385857
5250.333096
5249.36056973
5248.22838751
5246.91882979
5245.45569378
5243.83809751
5242.08171889
5240.19428393
5238.18940493
5236.078749
5233.87606237
5231.59486637
5229.2494812
5226.8543324
5224.42416592
5221.9737695
5219.51799922
5217.07163493
5214.64933265
5212.26551093
5209.93435544
5207.66959558
5205.4847394
5203.39238331
5201.40534828
5199.53427499
5197.7918927
5196.18513521
5194.7287761
5193.4225502
5192.28783146
5191.31257863
5190.52868252
5189.91593664
5189.50314427
5189.31169661
5250.43930148
5250.27823856
5249.88371489
5249.25729241
5248.45716327
5247.44609147
5246.26742275
5244.90336705
5243.37892798
5241.6936095
5239.86408865
5237.89875031
5235.81208797
5233.61652869
5231.32663409
5228.95669086
5226.52177471
5224.03702897
5221.51787995
5218.97975127
5216.43808619
5213.90819889
5211.40522597
5208.94401373
5206.53912965
5204.20463028
5201.95432728
5199.80106234
5197.75792335
5195.83571692
5194.04748265
5192.4002141
5190.90911119
5189.573859
5188.41626364
5187.42449479
5186.62986221
5186.01488715
5185.60255953
5185.42579189
5248.55246982
5248.39073172
5247.98422452
5247.3371732
5246.50700668
5245.45650342
5244.23029704
5242.81054641
5241.2235335
5239.46918351
5237.56524259
5235.52080683
5233.35131647
5231.07001383
5228.6923351
5226.23338154
5223.70903274
5221.13518651
5218.52798073
5215.90349237
5213.27776394
5210.66664312
5208.0857355
5205.55029774
5203.07524466
5200.67492322
5198.36340214
5196.15370737
5194.0591402
5192.09060502
5190.26138956
5188.57847274
5187.05743011
5185.69781781
5184.52181959
5183.51777037
5182.71627031
5182.10273549
5181.69378277
5181.53463684
5246.60392266
5246.44166407
5246.02300014
5245.35505672
5244.49439484
5243.40386607
5242.12944571
5240.65325792
5239.00293309
5237.17885751
5235.19991325
5233.0759628
5230.82345435
5228.4565031
5225.99147158
5223.44432701
5220.83179147
5218.17055436
5215.47748718
5212.76934093
5210.06276029
5207.37411817
5204.71947653
5202.11446539
5199.57431002
5197.11359563
5194.74658366
5192.48641955
5190.34654616
5188.33787818
5186.47388274
5184.76143413
5183.21641728
5181.83816922
5180.6491815
5179.63791369
5178.83410336
5178.2262459
5177.82398746
5177.68560109
5244.60509045
5244.44251566
5244.0116409
5243.32272294
5242.43135977
5241.30053886
5239.97761795
5238.44472164
5236.73088864
5234.83701147
5232.78317304
5230.58005474
5228.24517424
5225.7935721
5223.24259322
5220.6091147
5217.91074403
5215.16499449
5212.38949154
5209.60167096
5206.81877615
5204.05769475
5201.33491313
5198.66640034
5196.06764044
5193.55339083
5191.13803831
5188.83476304
5186.65706232
5184.61576576
5182.72443065
5180.98972316
5179.42775094
5178.03753649
5176.8417898
5175.82904751
5175.02800678
5174.43044851
5174.03841944
5173.92401885
5242.56805384
5242.40539268
5241.96234802
5241.25254031
5240.33051128
5239.15944098
5237.78811342
5236.19868915
5234.42167352
5232.45851547
5230.33055836
5228.04935845
5225.63356163
5223.09918666
5220.46461151
5217.74766713
5214.96688137
5212.1406174
5209.2872729
5206.42497392
5203.5715553
5200.74439834
5197.96038123
5195.23576332
5192.58622647
5190.02662895
5187.57139804
5185.23365456
5183.02685263
5180.96162721
5179.05152387
5177.30288077
5175.73193317
5174.3372802
5173.14174761
5172.13389758
5171.34119281
5170.75892221
5170.38086639
5170.29374915
5240.50517681
5240.34269308
5239.88761859
5239.15716113
5238.20472943
5236.99375746
5235.57448558
5233.92915805
5232.08980112
5230.05846766
5227.85781896
5225.50033906
5223.0058564
5220.39142006
5217.67648709
5214.87988267
5212.02109084
5209.11934499
5206.19383067
5203.26336004
5200.34634942
5197.46064467
5194.62347595
5191.85133678
5189.1600389
5186.56445859
5184.07897044
5181.71653061
5179.49043968
5177.41102002
5175.49168661
5173.73832508
5172.16718509
5170.77632559
5169.58856822
5168.59244572
5167.81398121
5167.25220667
5166.89195385
5166.83536433
5238.42919142
5238.26715376
5237.80026342
5237.04954464
5236.06719564
5234.81696175
5233.35056813
5231.65039077
5229.75002035
5227.65216691
5225.38086067
5222.94956753
5220.37934865
5217.68833191
5214.89709617
5212.02549885
5209.09400612
5206.12274392
5203.13168883
5200.14033901
5197.16766974
5194.23196027
5191.35074406
5188.5406867
5185.81765265
5183.19644611
5180.69128779
5178.31485575
5176.08017827
5173.99713533
5172.07888522
5170.33072746
5168.7688016
5167.39050262
5166.21851686
5165.24128939
5164.48318623
5163.94723028
5163.608624
5163.58569793
5236.35300624
5236.19167784
5235.71327795
5234.9428289
5233.93125754
5232.64267919
5231.13032195
5229.3767452
5227.41714382
5225.2549354
5222.91556666
5220.41353468
5217.7711806
5215.00775467
5212.14499778
5209.20383008
5206.20572618
5203.17171493
5200.12256977
5197.07846049
5194.05889941
5191.08255867
5188.16722268
5185.32965988
5182.5857051
5179.94999347
5177.43648493
5175.05745984
5172.82554817
5170.75005081
5168.84373815
5167.11118057
5165.5682757
5164.21162435
5163.06364313
5162.11262141
5161.38106881
5160.87619172
5160.56295562
5160.57662632
5234.2897071
5234.12932046
5233.63981816
5232.85028281
5231.8103749
5230.48460734
5228.92774902
5227.12258204
5225.10594464
5222.88200853
5220.47767764
5217.90852623
5215.19821526
5212.36715686
5209.43828597
5206.43361276
5203.37563778
5200.28630097
5197.18717033
5194.09906935
5191.04201898
5188.03504076
5185.09611107
5182.24202788
5179.48850908
5176.84992103
5174.33985118
5171.97005854
5169.75264401
5167.69619031
5165.81294334
5164.1066015
5162.59268472
5161.26686923
5160.15116636
5159.23363586
5158.53473924
5158.06603769
5157.78171874
5157.83475355
5232.25239468
5232.09319115
5231.59301109
5230.78514412
5229.71793711
5228.35636322
5226.75674243
5224.90212379
5222.83101609
5220.54838866
5218.08263657
5215.45045113
5212.67684708
5209.78343104
5206.79435836
5203.73274929
5200.6221419
5197.48538989
5194.34484287
5191.22196216
5188.13723905
5185.10999733
5182.15834234
5179.29902565
5176.54755978
5173.91794049
5171.42326723
5169.07465139
5166.88353591
5164.85764947
5163.00857133
5161.33898857
5159.86390654
5158.57793741
5157.50255632
5156.62549957
5155.96502338
5155.53714588
5155.28489041
5155.37969772
5230.2542033
5230.09636953
5229.58598805
5228.76060896
5227.66728294
5226.27146681
5224.63105978
5222.72940626
5220.60671182
5218.2687783
5215.74551814
5213.05477204
5210.22293358
5207.27282839
5204.2298504
5201.11824161
5197.96258294
5194.78663348
5191.61351644
5188.46529525
5185.36289847
5182.32589733
5179.37246247
5176.51922253
5173.78139571
5171.17250126
5168.70503743
5166.38935056
5164.23610068
5162.25203213
5160.4479124
5158.82528568
5157.39850824
5156.16099427
5155.13355706
5154.3035028
5153.68674879
5153.30381932
5153.08628435
5153.22416661
5228.30794577
5228.15161898
5227.63155041
5226.78953839
5225.67139277
5224.24306069
5222.5640483
5220.61801534
5218.44688339
5216.05731304
5213.48075203
5210.73621357
5207.85148591
5204.85062886
5201.76028352
5198.60581757
5195.41284956
5192.20603347
5189.00924037
5185.84510891
5182.73495794
5179.69855352
5176.75406687
5173.91792669
5171.20496483
5168.62812796
5166.1992108
5163.92767927
5161.8232909
5159.89166772
5158.14265773
5156.57651522
5155.20682442
5154.02567647
5153.05311834
5152.27589334
5151.70751663
5151.37286975
5151.19235679
5151.37426655
5226.42654768
5226.27176227
5225.74250657
5224.88473054
5223.74313568
5222.28411858
5220.56883776
5218.58126631
5216.36505875
5213.92774616
5211.3023208
5208.50897869
5205.57690764
5202.53140496
5199.40035674
5196.21024932
5192.98772534
5189.75831388
5186.54660475
5183.37577426
5180.26748528
5177.24164418
5174.31635777
5171.50777642
5168.83026606
5166.29611178
5163.91630803
5161.69933603
5159.65393567
5157.7844973
5156.09983555
5154.59880014
5153.29409935
5152.17638116
5151.26485116
5150.54557898
5150.02965561
5149.74613678
5149.6044497
5149.83157233
5224.62191907
5224.46861781
5223.9307127
5223.05805734
5221.89446963
5220.40669712
5218.65761679
5216.63149102
5214.3737242
5211.8927142
5209.22299959
5206.38595478
5203.41216121
5200.32814364
5197.16301976
5193.94437564
5190.69985603
5187.45583358
5184.23758581
5181.0687803
5177.97137949
5174.96537362
5172.06873934
5169.29728338
5166.66483183
5164.18292687
5161.86168142
5159.70849359
5157.7309915
5155.93223164
5154.31989864
5152.89133119
5151.65826906
5150.60979089
5149.76420223
5149.10675024
5148.64615638
5148.41535305
5148.31317895
5148.58516864
5222.90680312
5222.75471015
5222.20857328
5221.32178752
5220.1376341
5218.62304147
5216.84269646
5214.78109191
5212.48539778
5209.96485155
5207.25552988
5204.37996139
5201.3701021
5198.25367752
5195.06100979
5191.82075396
5188.56152164
5185.31049234
5182.09358598
5178.93491909
5175.85670155
5172.87895192
5170.01945758
5167.29362064
5164.71466684
5162.29332724
5160.03875227
5157.95718424
5156.05506862
5154.33406606
5152.80062345
5151.45048893
5150.29438104
5149.31969676
5148.54384461
5147.95107695
5147.54788147
5147.37063624
5147.30823006
5147.62423349
5221.29110203
5221.13980166
5220.58593224
5219.68577375
5218.48256594
5216.94314903
5215.13415075
5213.04020238
5210.71026606
5208.15436772
5205.41011085
5202.50113287
5199.46073488
5196.31779836
5193.10381131
5189.84845246
5186.58125624
5183.33016185
5180.12168425
5176.98033988
5173.92853415
5170.98626093
5168.17107169
5165.49791344
5162.97935868
5160.62526861
5158.44377375
5156.43991584
5154.61890394
5152.98089977
5151.53108713
5150.26351005
5149.18782835
5148.28960845
5147.58539834
5147.05823345
5146.7125634
5146.5877372
5146.56362606
5146.92159043
5219.78818435
5219.63681931
5219.07538669
5218.16227799
5216.94134415
5215.3789808
5213.5439121
5211.420766
5209.06032463
5206.47331066
5203.69883505
5200.76156675
5197.69610857
5194.53242983
5191.30313118
5188.03885297
5184.76999626
5181.52520092
5178.33152579
5175.21382957
5172.19466065
5169.29394114
5166.52894671
5163.91412629
5161.46135362
5159.17957794
5157.07590517
5155.1541141
5153.41814584
5151.86662114
5150.50345137
5149.32089504
5148.32758568
5147.50713199
5146.87538209
5146.41388793
5146.12528007
5146.05131799
5146.06425483
5146.46112659
5218.40370314
5218.2512096
5217.68260337
5216.75707201
5215.51989595
5213.93656107
5212.07808003
5209.92890331
5207.54168554
5204.92771936
5202.12761158
5199.16695527
5196.08160669
5192.90253358
5189.6633865
5186.3956915
5183.13065163
5179.89754365
5176.72390894
5173.6348951
5170.65314324
5167.7984676
5165.08782845
5162.53514291
5160.15156913
5157.94513413
5155.92189042
5154.08433302
5152.43513037
5150.97131002
5149.69550926
5148.59808543
5147.68671051
5146.94280114
5146.38175689
5145.98313529
5145.74838398
5145.72053866
5145.76658334
5146.19738004
5217.1540948
5216.99868252
5216.42259634
5215.48461286
5214.23226504
5212.62967262
5210.7503001
5208.57819909
5206.1679512
5203.53122777
5200.71011767
5197.73097959
5194.63086343
5191.44161266
5188.1978503
5184.93189138
5181.67566502
5178.45900615
5175.30987207
5172.25364106
5169.31300019
5166.50761531
5163.85410407
5161.36583383
5159.05324784
5156.92344543
5154.98144463
5153.22845353
5151.66591115
5150.28921662
5149.09981046
5148.08606598
5147.25486154
5146.5852656
5146.09259549
5145.75348952
5145.56981131
5145.58371405
5145.65943369
5146.11726623
5216.03649457
5215.87607723
5215.29256414
5214.34243866
5213.07629082
5211.45643214
5209.55890093
5207.3671109
5204.93765316
5202.28232976
5199.44472262
5196.45175807
5193.34162862
5190.14691007
5186.90312063
5183.64325709
5180.39989535
5177.20334465
5174.08191207
5171.06115007
5168.16374774
5165.40918677
5162.81372959
5160.39018949
5158.1483001
5156.09425287
5154.23206804
5152.56165945
5151.08328887
5149.79066086
5148.68412481
5147.74991447
5146.99430273
5146.39369849
5145.96338493
5145.67734099
5145.53755415
5145.58506569
5145.68278604
5146.15958862
5215.07502005
5214.90691562
5214.31496288
5213.35253191
5212.07328425
5210.43772773
5208.5244082
5206.31589105
5203.87087463
5201.20095541
5198.35123567
5195.34893693
5192.23333789
5189.03755914
5185.79792331
5182.54797595
5179.32084755
5176.14722624
5173.05569269
5170.07191202
5167.2185456
5164.5148529
5161.97673498
5159.61645882
5157.44310304
5155.46198117
5153.67620047
5152.08441501
5150.68585547
5149.47250724
5148.44383718
5147.58379322
5146.89831386
5146.36083467
5145.98766617
5145.74838582
5145.64711467
5145.72036227
5145.83422125
5146.31688063
5214.25273288
5214.07352756
5213.47175205
5212.49719141
5211.20591077
5209.55696621
5207.63101379
5205.40952777
5202.95333452
5200.27341863
5197.41643923
5194.40961633
5191.29328424
5188.10091887
5184.86957254
5181.63320833
5178.42542665
5175.27719794
5172.21730729
5169.27146718
5166.46227138
5163.80875291
5161.32642454
5159.02701584
5156.91901298
5155.00690893
5153.29295874
5151.77455947
5150.44999729
5149.30937612
5148.3513535
5147.557536
5146.93398269
5146.45040752
5146.12436228
5145.92168857
5145.8486864
5145.93690676
5146.05718676
5146.53172047
5213.60527137
5213.41293145
5212.79967538
5211.81396324
5210.51106072
5208.85017307
5206.91357021
5204.68152901
5202.21722139
5199.53051021
5196.66972231
5193.66168942
5190.54776772
5187.3615449
5184.14070722
5180.91947425
5177.73181249
5174.60886647
5171.57956287
5168.66960191
5165.90147061
5163.29397197
5160.86228806
5158.61760221
5156.56791911
5154.71701418
5153.06644253
5151.61231113
5150.35227874
5149.27478991
5148.37813648
5147.6409123
5147.06994245
5146.63120974
5146.34410338
5146.16951245
5146.11664005
5146.20930783
5146.32633651
5146.77153001
5213.10223384
5212.89035986
5212.25959853
5211.26222443
5209.94870498
5208.2797234
5206.3375041
5204.10092144
5201.63503173
5198.94822928
5196.09041488
5193.08781187
5189.98275223
5186.80878876
5183.60416596
5180.40324867
5177.2402937
5174.14652496
5171.15092033
5168.2790943
5165.55337963
5162.99229541
5160.61068021
5158.41921599
5156.4253232
5154.63220322
5153.04081133
5151.64611171
5150.44499058
5149.42402057
5148.58133504
5147.89248008
5147.3644003
5146.95927244
5146.69772249
5146.53703987
5146.48830546
5146.56911916
5146.66724994
5147.05671315
5212.78051381
5212.54981107
5211.90244519
5210.89754697
5209.57468042
5207.8985544
5205.9514498
5203.71073448
5201.24383728
5198.55721708
5195.70244487
5192.70480782
5189.60752168
5186.44389766
5183.2526143
5180.0680247
5176.92455546
5173.85342399
5170.88359798
5168.04059696
5165.34660898
5162.81994151
5160.4750993
5158.32249017
5156.3691592
5154.61775607
5153.06893632
5151.71679324
5150.55798726
5149.57735855
5148.77309537
5148.11796227
5147.61974766
5147.23638722
5146.9908096
5146.83561737
5146.78319292
5146.84401589
5146.906512
5147.21659294
5212.62276785
5212.35603706
5211.68597397
5210.67194833
5209.34537233
5207.67139624
5205.72954318
5203.496459
5201.03966669
5198.36491099
5195.52438436
5192.54307562
5189.46467264
5186.32241492
5183.15518622
5179.99732545
5176.88330113
5173.8442497
5170.90904584
5168.10305387
5165.44829989
5162.9629353
5160.66111949
5158.55242643
5156.64398894
5154.93828346
5153.43519141
5152.12816199
5151.01330353
5150.07421661
5149.30824832
5148.68614513
5148.21424042
5147.84838612
5147.60693607
5147.44080203
5147.35672755
5147.35964094
5147.34044605
5147.50701677
5102.28705045
5102.14068749
5101.88145827
5101.461141
5100.93731502
5100.26809444
5099.49292568
5098.59104468
5097.58444552
5096.46769855
5095.25377215
5093.94538431
5092.5522968
5091.08112065
5089.54107971
5087.94072971
5086.28966383
5084.59754533
5082.87450612
5081.13089813
5079.37731693
5077.62437442
5075.88296143
5074.1638604
5072.47785759
5070.83550396
5069.24740468
5067.72340681
5066.27398584
5064.9074401
5063.6348525
5062.46115978
5061.40034875
5060.45023303
5059.63244159
5058.93192491
5058.38341778
5057.95719568
5057.69604051
5057.57669836
5102.12082307
5101.98599227
5101.73360843
5101.31381451
5100.78993535
5100.12036128
5099.34402608
5098.44106176
5097.43263357
5096.31399585
5095.0976807
5093.78678115
5092.39090813
5090.91685473
5089.3738194
5087.77044494
5086.11633529
5084.42120313
5082.69519489
5080.94870812
5079.19234044
5077.43668691
5075.69263956
5073.9710089
5072.28252934
5070.63774706
5069.04718982
5067.52067119
5066.06849738
5064.69892614
5063.42267106
5062.24466499
5061.17823227
5060.22128688
5059.39479556
5058.68333692
5058.12248915
5057.67718861
5057.397953
5057.24226033
5101.81851435
5101.690898
5101.44685516
5101.02396617
5100.49411371
5099.81645068
5099.03068506
5098.11824969
5097.09938639
5095.97014706
5094.74241148
5093.41964616
5092.01121412
5090.52409763
5088.9674652
5087.35008327
5085.68161122
5083.9718624
5082.23105753
5080.46969971
5078.69841329
5076.92794874
5075.16924923
5073.43315994
5071.73051049
5070.07189833
5068.46789032
5066.92837611
5065.46362255
5064.08201573
5062.79405425
5061.60491965
5060.52734062
5059.55948527
5058.7211374
5057.99598688
5057.41886632
5056.94907256
5056.64412357
5056.4574696
5101.33073766
5101.20315865
5100.95555006
5100.52412123
5099.98341666
5099.29333057
5098.49345532
5097.56607549
5096.53071794
5095.38405698
5094.13751893
5092.79492519
5091.36550026
5089.85645323
5088.27699779
5086.63607832
5084.94347594
5083.2091603
5081.44349415
5079.65712194
5077.86079194
5076.06540036
5074.28202178
5072.52160831
5070.7950974
5069.1131815
5067.48648659
5065.92497968
5064.43889626
5063.03670363
5061.72870016
5060.52020856
5059.42354016
5058.43713542
5057.5804577
5056.83741902
5056.24421867
5055.75911551
5055.44595427
5055.25481015
5100.7188773
5100.5909696
5100.33721615
5099.89489969
5099.33972968
5098.63263675
5097.81337396
5096.86500674
5095.80666127
5094.6355344
5093.36275089
5091.99243889
5090.53376423
5088.99416066
5087.3829378
5085.70924894
5083.98304918
5082.21451354
5080.41420728
5078.59297031
5076.76173179
5074.93161389
5073.11385813
5071.31958571
5069.55991231
5067.84568779
5066.18768001
5064.5960095
5063.08099184
5061.65125974
5060.31707636
5059.08398471
5057.96408382
5056.95612498
5056.07927691
5055.31777862
5054.70807243
5054.20873006
5053.88571346
5053.6909809
5099.93754214
5099.80894936
5099.54700644
5099.09218737
5098.52003111
5097.79256342
5096.94968347
5095.97506664
5094.88772296
5093.68527465
5092.37877968
5090.9726702
5089.47618291
5087.89701213
5086.24465484
5084.52852789
5082.75882839
5080.94599453
5079.10085695
5077.23450268
5075.35812393
5073.48309726
5071.62089739
5069.78287779
5067.98037402
5066.22444558
5064.52604821
5062.89549229
5061.34323075
5059.87807958
5058.51036935
5057.24586804
5056.09668391
5055.06196352
5054.16091986
5053.37856857
5052.75153131
5052.24011241
5051.9095498
5051.71632317
5099.02996852
5098.8999642
5098.62855732
5098.15957108
5097.56806222
5096.81697475
5095.94654105
5094.94089244
5093.81918737
5092.57940062
5091.23270495
5089.78382898
5088.24218848
5086.61577396
5084.91433822
5083.14760492
5081.32607537
5079.46050144
5077.56203034
5075.64205155
5073.71207154
5071.78377506
5069.86891645
5067.97913375
5066.12603181
5064.32093035
5062.57502978
5060.89888105
5059.30315124
5057.79689052
5056.39061251
5055.0903521
5053.90839232
5052.8442645
5051.91737162
5051.11349342
5050.46916331
5049.94669776
5049.60960633
5049.4195101
5097.97329158
5097.8420803
5097.56130634
5097.07744507
5096.46509857
5095.68785975
5094.7864894
5093.74545733
5092.58430961
5091.30134651
5089.90803263
5088.40942813
5086.81525186
5085.13384353
5083.37529694
5081.54970689
5079.66794173
5077.74112584
5075.78078322
5073.79866216
5071.80663723
5069.81674662
5067.84107458
5065.89159012
5063.98020842
5062.11855038
5060.31810194
5058.58968847
5056.94423795
5055.39105596
5053.94090878
5052.60009361
5051.38117666
5050.28404412
5049.32838772
5048.50072254
5047.83736069
5047.30293226
5046.95829735
5046.771941
5096.79195232
5096.65886277
5096.36778597
5095.86757085
5095.23244834
5094.42638885
5093.49083141
5092.41044634
5091.20533592
5089.87409004
5088.42859819
5086.87428152
5085.22125633
5083.4782659
5081.65582123
5079.76444034
5077.81542113
5075.82031459
5073.7910737
5071.73985363
5069.67894386
5067.62077657
5065.57780696
5063.56237189
5061.58673264
5059.6628446
5057.80251501
5056.01687514
5054.31715904
5052.71295606
5051.2153535
5049.83092849
5048.57263392
5047.44069131
5046.45521338
5045.60337479
5044.9213481
5044.3759147
5044.02531806
5043.84415118
5095.47997289
5095.34509199
5095.04366553
5094.52633208
5093.86710513
5093.0300605
5092.05749512
5090.93418514
5089.68095417
5088.29668248
5086.79381389
5085.17817829
5083.46038942
5081.64965701
5079.75698346
5077.79337375
5075.77061845
5073.70075186
5071.59620632
5069.4695942
5067.33366221
5065.20127543
5063.08529598
5060.99845958
5058.95340127
5056.96243452
5055.03771067
5053.19068292
5051.4329151
5049.77428548
5048.22623297
5046.79559441
5045.49575259
5044.32719277
5043.31049661
5042.43336813
5041.73185485
5041.17485436
5040.81786368
5040.64217704
5094.05193217
5093.91486146
5093.60232691
5093.06661925
5092.38163462
5091.51137482
5090.49911145
5089.32962514
5088.02458088
5086.58314358
5085.01840986
5083.33666324
5081.549099
5079.66545002
5077.69728108
5075.65614263
5073.55437563
5071.40454909
5069.21962407
5067.0127111
5064.79705268
5062.58597713
5060.39278291
5058.23062557
5056.11253321
5054.05119114
5052.05910845
5050.1480677
5048.32997723
5046.6150064
5045.01497024
5043.53695425
5042.19481919
5040.98927052
5039.94143997
5039.03946809
5038.31938023
5037.75203659
5037.39020668
5037.22142849
5092.51100465
5092.3717614
5092.04780136
5091.49287578
5090.78085477
5089.87551574
5088.82122796
5087.60271993
5086.24260933
5084.74036105
5083.1098234
5081.3577838
5079.49609858
5077.53508741
5075.48694631
5073.36383043
5071.17868817
5068.94467466
5066.67532376
5064.3842855
5062.08532988
5059.7922755
5057.51887789
5055.278727
5053.08525278
5050.95151613
5048.89038386
5046.91396178
5045.03449865
5043.26243578
5041.60996316
5040.08437614
5038.70001934
5037.4577422
5036.37924957
5035.45299784
5034.71501863
5034.13808484
5033.77211413
5033.6111753
5090.86832956
5090.72676113
5090.39078834
5089.81566778
5089.07528382
5088.13309875
5087.03468512
5085.76466806
5084.34670825
5082.78058826
5081.08098769
5079.25524544
5077.31595364
5075.27407792
5073.14250956
5070.93406515
5068.66235397
5066.34116469