/*--------------------------------*- C++ -*----------------------------------*\
| =========                 |                                                 |
| \\      /  F ield         | foam-extend: Open Source CFD                    |
|  \\    /   O peration     | Version:     4.1                                |
|   \\  /    A nd           | Web:         http://www.foam-extend.org         |
|    \\/     M anipulation  |                                                 |
\*---------------------------------------------------------------------------*/
FoamFile
{
    version     2.0;
    format      ascii;
    class       volScalarField;
    location    "0.7";
    object      pd;
}
// * * * * * * * * * * * * * * * * * * * * * * * * * * * * * * * * * * * * * //

dimensions      [1 -1 -2 0 0 0 0];

internalField   nonuniform List<scalar> 
96000
(
5346.96221733
5346.81562367
5346.55608785
5346.13877068
5345.61849405
5344.95335797
5344.18221151
5343.28431619
5342.28173675
5341.16905237
5339.95935424
5338.65536058
5337.2669113
5335.80061258
5334.26569849
5332.67071133
5331.02523665
5329.33891585
5327.62185692
5325.88436912
5324.13701217
5322.39043559
5320.65541437
5318.94268987
5317.26301142
5315.62686381
5314.04479346
5312.52655761
5311.08254952
5309.72092074
5308.4526266
5307.28232169
5306.22375215
5305.27422078
5304.4549113
5303.74993928
5303.19336245
5302.75409333
5302.47473873
5302.32812737
5346.79484001
5346.64716888
5346.3832276
5345.96212344
5345.44062423
5344.77547182
5344.00441865
5343.1067403
5342.10379597
5340.99054622
5339.77980096
5338.47456163
5337.08459313
5335.6166566
5334.08000172
5332.48324978
5330.83600889
5329.14796053
5327.42923281
5325.69016357
5323.94132158
5322.19332298
5320.45696153
5318.74297924
5317.06207861
5315.42472387
5313.84137985
5312.32174564
5310.87604222
5309.5123098
5308.24114249
5307.0670204
5306.00307685
5305.04636351
5304.21756836
5303.5002304
5302.92984186
5302.47097753
5302.17346166
5301.99054713
5346.49175359
5346.33989829
5346.06757973
5345.63459604
5345.10262734
5344.42790287
5343.64746934
5342.74099983
5341.72860774
5340.60574894
5339.38455774
5338.06836553
5336.6667179
5335.18657585
5333.63717472
5332.02726431
5330.36650884
5328.66469566
5326.93202665
5325.17893973
5323.41604735
5321.65408802
5319.90391015
5318.17630334
5316.48204274
5314.83164244
5313.23559914
5311.70367208
5310.24603813
5308.87084334
5307.58847431
5306.40363363
5305.32894523
5304.3617869
5303.52201484
5302.79275496
5302.20934629
5301.73188686
5301.41671763
5301.20881322
5346.00687879
5345.85105747
5345.56664916
5345.12016709
5344.57433853
5343.88608659
5343.09154688
5342.17078859
5341.14289273
5340.00372814
5338.76490195
5337.43006146
5336.00861328
5334.50774233
5332.93673293
5331.30451843
5329.62088343
5327.89576787
5326.13951022
5324.36268158
5322.576029
5320.79040998
5319.01680942
5317.26612166
5315.54922259
5313.8767173
5312.25915552
5310.70637138
5309.2285092
5307.83379556
5306.53243744
5305.32929608
5304.23665467
5303.25221914
5302.3956265
5301.65021976
5301.05236748
5300.5602215
5300.23530145
5300.01513746
5345.3986421
5345.2415657
5344.94673024
5344.48647326
5343.92432348
5343.21836028
5342.404458
5341.46322088
5340.4131028
5339.25035353
5337.98621237
5336.62459438
5335.17482845
5333.64432362
5332.04247153
5330.37841893
5328.66212619
5326.90374105
5325.1137986
5323.30306971
5321.48248598
5319.66311049
5317.85609771
5316.07251198
5314.32340023
5312.619526
5310.97158035
5309.38955354
5307.88367445
5306.46234332
5305.13574172
5303.90896572
5302.79408665
5301.78912001
5300.91330268
5300.15016915
5299.53580915
5299.02828855
5298.6904648
5298.46211084
5344.62165683
5344.46447569
5344.1602116
5343.68652512
5343.10676173
5342.38040099
5341.54324224
5340.57640577
5339.49810066
5338.3049234
5337.00799555
5335.61150644
5334.12485247
5332.55571332
5330.91366711
5329.20812228
5327.44928426
5325.64756139
5323.81375028
5321.95887642
5320.09412821
5318.23081551
5316.38032763
5314.55395884
5312.76297329
5311.01834431
5309.33095033
5307.71097258
5306.16877719
5304.71294808
5303.35372649
5302.09641802
5300.95305307
5299.92196056
5299.02221285
5298.23789765
5297.60473885
5297.08231015
5296.73220616
5296.50042775
5343.71849591
5343.56139669
5343.24795109
5342.76028547
5342.16130132
5341.41172173
5340.54757267
5339.55042402
5338.43855622
5337.20887709
5335.87258329
5334.43415674
5332.90317678
5331.28761841
5329.59731742
5327.84199693
5326.03216025
5324.17852929
5322.29221893
5320.38455908
5318.46704566
5316.55128886
5314.64896194
5312.7716428
5310.93086455
5309.1378627
5307.40376167
5305.7389869
5304.15411585
5302.65795966
5301.26092208
5299.96853824
5298.79292767
5297.73270306
5296.80688702
5296.00015852
5295.34770824
5294.81125944
5294.44996181
5294.21727539
5342.66631068
5342.50952194
5342.18760187
5341.6858874
5341.06668631
5340.29167268
5339.39733234
5338.36560054
5337.215103
5335.94305874
5334.56094374
5333.07357352
5331.49082633
5329.82103366
5328.07437848
5326.26095087
5324.39162714
5322.47750379
5320.53006745
5318.56100924
5316.58218685
5314.60556049
5312.64313716
5310.70682444
5308.80846687
5306.959602
5305.17164079
5303.45528257
5301.82136352
5300.27893864
5298.83863813
5297.50621376
5296.29397212
5295.20077531
5294.24571566
5293.4141138
5292.74055088
5292.1894244
5291.81638875
5291.58431748
5341.48959655
5341.33262038
5341.00159055
5340.48467569
5339.84357526
5339.0406194
5338.1129253
5337.04266403
5335.84899577
5334.52943285
5333.09587677
5331.55350764
5329.91260977
5328.18192087
5326.37204005
5324.49348576
5322.55756405
5320.575797
5318.56009717
5316.52256474
5314.47546674
5312.4311559
5310.40201449
5308.40031755
5306.43825824
5304.52771101
5302.68041036
5300.90736118
5299.2197043
5297.62676723
5296.13947659
5294.76382118
5293.51241132
5292.38435886
5291.39898167
5290.54222927
5289.84819051
5289.28386291
5288.90115201
5288.6716505
5340.18237622
5340.02514333
5339.68495828
5339.15218957
5338.48796581
5337.65498225
5336.69115104
5335.57879
5334.33776769
5332.96589939
5331.47565023
5329.87261488
5328.16758487
5326.36976564
5324.49025237
5322.54005008
5320.53095607
5318.47497412
5316.38449605
5314.2720812
5312.1504473
5310.0323805
5307.93067432
5305.85800319
5303.8269374
5301.84971313
5299.93841333
5298.10436569
5296.35904109
5294.71204692
5293.17464346
5291.75304546
5290.46022702
5289.29550481
5288.27849666
5287.39569498
5286.6807082
5286.10318365
5285.71093975
5285.48513225
5338.7593611
5338.60149046
5338.25136929
5337.70153215
5337.0125749
5336.14735504
5335.14468678
5333.98695512
5332.69485382
5331.26649813
5329.71502243
5328.04647871
5326.27224719
5324.40206142
5322.44758069
5320.42035366
5318.33272689
5316.19723684
5314.02680042
5311.83447948
5309.63348242
5307.43705916
5305.25844411
5303.11073356
5301.0068955
5298.9595426
5296.98112196
5295.08329635
5293.27788426
5291.57478092
5289.98561589
5288.51683049
5287.1818278
5285.98011139
5284.93169867
5284.0235614
5283.28890723
5282.69989604
5282.30006896
5282.07988899
5337.22372067
5337.06514895
5336.70469659
5336.13695557
5335.42198402
5334.52265593
5333.47881078
5332.27283547
5330.92636901
5329.43784215
5327.82115444
5326.08286592
5324.23502996
5322.28796647
5320.25396731
5318.14518347
5315.97456711
5313.75523853
5311.5006841
5309.22450827
5306.94044276
5304.66222977
5302.4035657
5300.17798446
5297.99886217
5295.87919343
5293.83179168
5291.86865074
5290.00193916
5288.24182786
5286.60032376
5285.08406809
5283.70691662
5282.468503
5281.38927511
5280.45659933
5279.70327291
5279.10396992
5278.69768973
5278.48479487
5335.58666793
5335.42724497
5335.05583764
5334.4692218
5333.72688783
5332.79167778
5331.70453392
5330.4478005
5329.04415534
5327.49235686
5325.80715235
5323.99566001
5322.07067745
5320.04316897
5317.92612214
5315.73234547
5313.47544949
5311.16918502
5308.82764993
5306.46502489
5304.09559312
5301.73360877
5299.39324511
5297.08847853
5294.83309557
5292.64046563
5290.52376095
5288.49529101
5286.56756332
5284.75100488
5283.05799575
5281.49534956
5280.07738807
5278.80383071
5277.69558917
5276.74035899
5275.97051405
5275.36324428
5274.95266402
5274.74933153
5333.85587006
5333.69561706
5333.31286461
5332.70667064
5331.93590777
5330.96336672
5329.83116863
5328.52159957
5327.05845815
5325.44086012
5323.68448086
5321.79704608
5319.79216834
5317.68151449
5315.47882997
5313.19763539
5310.85225069
5308.45710166
5306.02693458
5303.57653761
5301.1207672
5298.67440305
5296.25210089
5293.86827922
5291.53712351
5289.27236271
5287.08750488
5284.99514604
5283.00810619
5281.13702621
5279.3946375
5277.78787526
5276.33151233
5275.02528896
5273.89057524
5272.91532149
5272.13141659
5271.51865374
5271.10584902
5270.91443014
5332.04204766
5331.88099526
5331.4865022
5330.86009919
5330.05997041
5329.04888409
5327.87019973
5326.50613288
5324.98168873
5323.29636891
5321.46684775
5319.50150984
5317.41484901
5315.21929194
5312.92939958
5310.55945812
5308.12454266
5305.63979659
5303.1206469
5300.58251779
5298.04085284
5295.51096576
5293.00799291
5290.54678088
5288.14189665
5285.80739631
5283.55709169
5281.40382369
5279.36067963
5277.43846716
5275.65022628
5274.00295048
5272.51184718
5271.17659697
5270.01900725
5269.02723783
5268.23259674
5267.61760506
5267.20526629
5267.02852694
5330.15521021
5329.99348211
5329.58700598
5328.93997479
5328.10980929
5327.05929174
5325.83306993
5324.41330832
5322.82629063
5321.07193959
5319.16799864
5317.12356353
5314.95407485
5312.67277469
5310.2950984
5307.83614661
5305.31179854
5302.73795206
5300.13074586
5297.50625727
5294.88052895
5292.26940854
5289.68850139
5287.15306377
5284.67801034
5282.27768836
5279.96616559
5277.75646729
5275.66189544
5273.69335467
5271.86413111
5270.18120818
5268.66016644
5267.30055699
5266.12456408
5265.12051447
5264.31900651
5263.70545558
5263.2964917
5263.13737472
5328.20665708
5328.04440809
5327.62577565
5326.95785297
5326.09719277
5325.00664993
5323.73221431
5322.2560157
5320.60568627
5318.78160988
5316.80266583
5314.67871625
5312.42620968
5310.05926117
5307.59423223
5305.04708926
5302.43455455
5299.77331753
5297.08025017
5294.37210388
5291.6655233
5288.97688182
5286.32224098
5283.71722968
5281.17707378
5278.71635902
5276.3493452
5274.08917775
5271.94930006
5269.94062622
5268.07662182
5266.36416971
5264.81915421
5263.4409097
5262.25192678
5261.24065939
5260.43684205
5259.8289692
5259.4266992
5259.28834252
5326.20781868
5326.04525319
5325.61441034
5324.92551373
5324.03415289
5322.90331811
5321.5803821
5320.04747506
5318.33363762
5316.43975992
5314.38592191
5312.1828047
5309.84792626
5307.39632691
5304.84535084
5302.21187419
5299.51350432
5296.76775502
5293.99225212
5291.20443169
5288.42153717
5285.6604564
5282.93767538
5280.2691627
5277.67040253
5275.15615127
5272.74079627
5270.43751866
5268.25981519
5266.2185113
5264.32716632
5262.59245923
5261.03048871
5259.64027799
5258.44453539
5257.43179536
5256.6307483
5256.0331755
5255.64113631
5255.52676389
5324.17077604
5324.00812374
5323.56511139
5322.85532561
5321.9332996
5320.76221565
5319.39087314
5317.80143817
5316.02441829
5314.06126003
5311.9333035
5309.65210491
5307.23631037
5304.7019383
5302.06736611
5299.35042398
5296.56963917
5293.74337559
5290.89003132
5288.02773252
5285.17431446
5282.34715831
5279.56314169
5276.83852435
5274.18898735
5271.62938773
5269.17415381
5266.83640765
5264.62960404
5262.56436974
5260.65425977
5258.90561744
5257.33467163
5255.94002262
5254.7444951
5253.73664822
5252.94393708
5252.3616527
5251.98358978
5251.89649764
5322.1078932
5321.9454177
5321.49037594
5320.75994105
5319.80751311
5318.59652772
5317.17724109
5315.53190279
5313.69254183
5311.6612086
5309.46056072
5307.1030822
5304.60860206
5301.99416901
5299.27923901
5296.48263689
5293.62384659
5290.72210138
5287.79658742
5284.86611722
5281.9491075
5279.06340376
5276.22623562
5273.45409665
5270.76279857
5268.16721783
5265.68172725
5263.31928396
5261.09318925
5259.01376195
5257.09442341
5255.34106217
5253.76992422
5252.37906941
5251.1913185
5250.19519841
5249.41672822
5248.85494048
5248.49467792
5248.43811673
5320.03190173
5319.86987197
5319.40301491
5318.65231936
5317.66997493
5316.41972781
5314.95331966
5313.25313154
5311.3527573
5309.25490436
5306.98359929
5304.55230773
5301.98209158
5299.29107831
5296.49984575
5293.62825102
5290.69676017
5287.72549879
5284.73444421
5281.74309542
5278.77042759
5275.83471905
5272.95350333
5270.14344602
5267.42041203
5264.79920545
5262.29404543
5259.91761007
5257.68292766
5255.59987892
5253.6816225
5251.93346472
5250.37154147
5248.99324807
5247.82126862
5246.84404266
5246.08593611
5245.54996801
5245.21134814
5245.18845541
5317.95571013
5317.79438985
5317.3160238
5316.54559865
5315.53403268
5314.24544127
5312.73306965
5310.97948226
5309.01987723
5306.85766957
5304.51830213
5302.01627208
5299.37392099
5296.61049853
5293.74774535
5290.80658072
5287.80847857
5284.7744684
5281.72532432
5278.68121661
5275.66165701
5272.6853172
5269.76998194
5266.93241995
5264.18846552
5261.55275246
5259.03924179
5256.66021486
5254.42829839
5252.35279313
5250.44647574
5248.71391832
5247.17101599
5245.81437091
5244.6663965
5243.71537692
5242.98382261
5242.47893461
5242.16568752
5242.17938988
5315.89240492
5315.7320266
5315.24255859
5314.45304777
5313.41314603
5312.08736554
5310.53049297
5308.72531542
5306.70867452
5304.48473948
5302.08040996
5299.51126068
5296.80095287
5293.96989831
5291.04103156
5288.03636152
5284.97838851
5281.88905329
5278.78992442
5275.70182512
5272.64477586
5269.63779883
5266.69887128
5263.84478994
5261.09127051
5258.45267962
5255.94260743
5253.57281413
5251.3553955
5249.29893015
5247.41568165
5245.7093404
5244.19542519
5242.86961615
5241.75392362
5240.83639834
5240.13749826
5239.66878487
5239.384459
5239.43752043
5313.8550876
5313.69589167
5313.19574626
5312.38790441
5311.32070433
5309.95911759
5308.35948265
5306.50485343
5304.43374231
5302.15111609
5299.68536567
5297.05318247
5294.2795817
5291.38617
5288.39710155
5285.33549574
5282.22489089
5279.08814119
5275.94759615
5272.82471694
5269.73999498
5266.71275556
5263.76110397
5260.90178858
5258.15032037
5255.52069781
5253.02602276
5250.67740628
5248.48628905
5246.46039475
5244.6113107
5242.94172704
5241.46664809
5240.18068337
5239.1053109
5238.22826862
5237.56778672
5237.13989515
5236.8876416
5236.98246398
5311.85689152
5311.69906458
5311.18871812
5310.36336472
5309.27004631
5307.87421737
5306.23379625
5304.33213212
5302.20943418
5299.87150205
5297.34824397
5294.65750007
5291.825665
5288.87556446
5285.83259087
5282.72098576
5279.5653302
5276.38938333
5273.21626823
5270.06804885
5266.96565435
5263.92865707
5260.97522452
5258.12198351
5255.38415468
5252.77525907
5250.30779415
5247.9921025
5245.83884796
5243.854786
5242.05065066
5240.4280191
5239.0012486
5237.76373766
5236.73630574
5235.90626481
5235.28951191
5234.90657286
5234.68904677
5234.82693891
5309.91062896
5309.7543087
5309.23427557
5308.39228972
5307.2741524
5305.84580747
5304.16678101
5302.22073738
5300.04960187
5297.66003313
5295.08347425
5292.33893815
5289.45421423
5286.45336177
5283.36302102
5280.2085595
5277.01559499
5273.80878141
5270.61199085
5267.4478622
5264.33771538
5261.30131472
5258.35682815
5255.52068582
5252.80772321
5250.23088873
5247.80196785
5245.53042553
5243.42603413
5241.4944111
5239.74539204
5238.1792485
5236.80955827
5235.62841684
5234.65587136
5233.87864684
5233.31027309
5232.97562863
5232.79511887
5232.97704638
5308.02922585
5307.87444686
5307.34522692
5306.48747752
5305.34589165
5303.88686155
5302.17156661
5300.18398449
5297.96777349
5295.53046249
5292.90503915
5290.11169964
5287.17963262
5284.13413457
5281.00309133
5277.81298886
5274.59046886
5271.36106034
5268.14935469
5264.97852838
5261.87024438
5258.84440489
5255.9191171
5253.11053545
5250.43302757
5247.89887153
5245.51905937
5243.30207993
5241.25667888
5239.38722937
5237.7025658
5236.2015335
5234.89683138
5233.77912168
5232.86760852
5232.1483359
5231.63241066
5231.3488893
5231.20719794
5231.43434811
5306.22459287
5306.07129735
5305.53342818
5304.66079988
5303.49722171
5302.009436
5300.26034142
5298.23420499
5295.97643504
5293.49542636
5290.82571382
5287.98867182
5285.01488224
5281.93086958
5278.76575139
5275.54711266
5272.30259753
5269.05857902
5265.84033534
5262.67153531
5259.57413931
5256.56813319
5253.67149847
5250.90004775
5248.26759473
5245.78567698
5243.46443125
5241.3112481
5239.33375606
5237.53496779
5235.92262424
5234.49405983
5233.26099752
5232.21252566
5231.36694565
5230.70950541
5230.24891648
5230.01809789
5229.91592334
5230.1879381
5304.50947244
5304.35738436
5303.81128361
5302.92452528
5301.74038151
5300.22577555
5298.44541608
5296.3838008
5294.08810351
5291.56755847
5288.85823912
5285.98267357
5282.97281827
5279.85639909
5276.66373759
5273.42348737
5270.16425996
5266.913236
5263.69633442
5260.53767176
5257.4594585
5254.48171377
5251.62222363
5248.8963839
5246.31742245
5243.89607847
5241.64150753
5239.55993948
5237.65781067
5235.93680284
5234.40334741
5233.05320245
5231.89709084
5230.92241148
5230.14656998
5229.55381998
5229.15063025
5228.97337937
5228.91097382
5229.22700042
5302.89376477
5302.74247019
5302.188637
5301.28850614
5300.08530764
5298.54587725
5296.73686416
5294.64290488
5292.31296496
5289.75706765
5287.01281339
5284.10383864
5281.06344494
5277.9205142
5274.70653326
5271.45118032
5268.18399021
5264.93290175
5261.72442861
5258.58308803
5255.53128877
5252.5890248
5249.77383624
5247.10066862
5244.58211387
5242.22803434
5240.04652113
5238.04264622
5236.22163019
5234.58363034
5233.13379809
5231.86619853
5230.79051504
5229.89229721
5229.18810767
5228.66096187
5228.31529782
5228.19047639
5228.16637045
5228.52435627
5301.39083923
5301.23948199
5300.67808553
5299.76500445
5298.54407944
5296.98170232
5295.1466182
5293.02346063
5290.66301564
5288.0760026
5285.30152966
5282.36426481
5279.29881111
5276.1351382
5272.90584589
5269.64157464
5266.3727252
5263.12793528
5259.93426507
5256.81657672
5253.79741629
5250.89669881
5248.13170089
5245.51688343
5243.06411893
5240.78233006
5238.67864021
5236.75683915
5235.02086904
5233.46932819
5232.10613935
5230.92357558
5229.93026321
5229.1098074
5228.47807659
5228.01660288
5227.72800473
5227.65404911
5227.66699281
5228.06388904
5300.00635484
5299.85386643
5299.28529631
5298.35979257
5297.12262501
5295.53927593
5293.68077893
5291.53158989
5289.1443684
5286.53040343
5283.73029836
5280.7696456
5277.68430169
5274.50523484
5271.26609542
5267.99840836
5264.73337553
5261.50027465
5258.32664847
5255.23764284
5252.25589613
5249.40122225
5246.69058216
5244.13789949
5241.75432824
5239.5478773
5237.52462114
5235.68705491
5234.03783861
5232.57399707
5231.29818684
5230.20075968
5229.28937644
5228.54547608
5227.98444655
5227.58583344
5227.35109964
5227.3232635
5227.36931435
5227.80013833
5298.75674401
5298.60133555
5298.0252838
5297.08732825
5295.83498907
5294.23238197
5292.35299338
5290.18087959
5287.77062684
5285.13390536
5282.3127985
5279.33366404
5276.23355324
5273.0443097
5269.80055577
5266.53460513
5263.27838696
5260.06173835
5256.91261416
5253.85638804
5250.9157517
5248.1103726
5245.45686072
5242.96858912
5240.65600273
5238.52619018
5236.58417313
5234.83116387
5233.26860111
5231.89189647
5230.70248356
5229.68872571
5228.85751534
5228.18794621
5227.69527625
5227.35617679
5227.17252183
5227.18643602
5227.26216096
5227.72002191
5297.63914085
5297.47872645
5296.89524725
5295.94514972
5294.67901063
5293.05913707
5291.16158992
5288.96978738
5286.54032448
5283.88500299
5281.04739916
5278.05443847
5274.94431515
5271.74960469
5268.505824
5265.24596979
5262.00261778
5258.80607677
5255.68465424
5252.66390136
5249.76650411
5247.0119438
5244.41648881
5241.99295746
5239.75105927
5237.69699331
5235.83479351
5234.16436414
5232.68597106
5231.39333448
5230.28678841
5229.35256092
5228.59695466
5227.99636184
5227.5660533
5227.28003257
5227.14026505
5227.18778557
5227.28551293
5227.76234437
5296.67766295
5296.50956033
5295.9176412
5294.95523773
5293.67599741
5292.04042682
5290.12709175
5287.91856306
5285.47354151
5282.80362289
5279.95390664
5276.95161269
5273.83602008
5270.6402498
5267.40062363
5264.1506868
5260.92356922
5257.7499574
5254.65843327
5251.67466365
5248.82130617
5246.11761229
5243.57949611
5241.21923207
5239.04586486
5237.06471748
5235.27892279
5233.68712274
5232.28853551
5231.07517122
5230.04649029
5229.18643228
5228.50095289
5227.96348104
5227.59033601
5227.35108274
5227.24982587
5227.32308215
5227.43694838
5227.91963609
5295.85537102
5295.67616642
5295.07442258
5294.09988804
5292.80861124
5291.15965379
5289.23368633
5287.0121892
5284.55599085
5281.8760755
5279.01909963
5276.01228206
5272.89595701
5269.70360065
5266.47226505
5263.23591235
5260.02814217
5256.8799244
5253.8200439
5250.87421318
5248.06502492
5245.411512
5242.9291887
5240.62977812
5238.5217667
5236.6096455
5234.89567682
5233.37726408
5232.05268607
5230.91204227
5229.95399659
5229.1601702
5228.53661733
5228.05305699
5227.7270412
5227.52438545
5227.45139651
5227.53962646
5227.65991002
5228.13447275
5295.2079039
5295.01556102
5294.40233396
5293.41664464
5292.11374208
5290.45284135
5288.51622367
5286.28417176
5283.81985949
5281.13314911
5278.27236488
5275.26433768
5272.1504237
5268.96421087
5265.7433848
5262.52216403
5259.33451489
5256.21158129
5253.18228854
5250.27233655
5247.5042135
5244.89672362
5242.46504556
5240.2203534
5238.17065675
5236.31973918
5234.66915676
5233.21501002
5231.95495832
5230.87744925
5229.98077268
5229.24354605
5228.67258036
5228.23387018
5227.94678199
5227.77220548
5227.71934688
5227.81202098
5227.92905267
5228.37427678
5294.70485544
5294.49297583
5293.86223948
5292.86488446
5291.55136146
5289.88236523
5287.94013055
5285.7035371
5283.23764278
5280.55084101
5277.69303072
5274.69043384
5271.5853823
5268.41142966
5265.20681964
5262.00591606
5258.84297536
5255.74921943
5252.75362553
5249.88181023
5247.15610697
5244.59503187
5242.21341961
5240.02195268
5238.02805002
5236.23491397
5234.6435058
5233.24879066
5232.04764812
5231.02665477
5230.18396879
5229.49511346
5228.96703328
5228.56191834
5228.30038804
5228.13972148
5228.09099869
5228.17181824
5228.26995513
5228.65944952
5294.38313327
5294.15242437
5293.50506867
5292.50018743
5291.17731438
5289.50117202
5287.55405169
5285.31332409
5282.84641991
5280.15980086
5277.30503548
5274.30740879
5271.21013471
5268.04652278
5264.85525256
5261.6706786
5258.52722277
5255.45609904
5252.48628545
5249.64330137
5246.94933075
5244.42267223
5242.0778293
5239.92522128
5237.97188378
5236.2204639
5234.67162352
5233.3194629
5232.16064292
5231.179997
5230.37572888
5229.72059525
5229.22238024
5228.83902681
5228.59346874
5228.43829103
5228.38587834
5228.44670701
5228.50920667
5228.81932493
5294.22543488
5293.95869989
5293.28864702
5292.27462797
5290.94804542
5289.27405706
5287.33219274
5285.09910158
5282.64230705
5279.96755269
5277.1270302
5274.14572735
5271.06733205
5267.92508438
5264.75786674
5261.60001761
5258.48600623
5255.44696695
5252.51177322
5249.705791
5247.05104841
5244.56569331
5242.26387844
5240.15518136
5238.24673782
5236.54102291
5235.03791776
5233.73087373
5232.61600311
5231.67690859
5230.91092693
5230.28881902
5229.81692294
5229.45107919
5229.20963984
5229.04351646
5228.95945214
5228.96236907
5228.94317548
5229.10978591
5347.09535054
5346.94899187
5346.68981303
5346.2695191
5345.74566804
5345.07639038
5344.30116382
5343.39923709
5342.39260587
5341.27583606
5340.06188897
5338.75348123
5337.36038297
5335.88920522
5334.34916314
5332.74881085
5331.09774174
5329.40561917
5327.68257525
5325.93896078
5324.18537294
5322.43242724
5320.69101195
5318.97190866
5317.2859042
5315.64354915
5314.05544828
5312.53144782
5311.08202328
5309.71547447
5308.44288497
5307.26919019
5306.20837948
5305.25827909
5304.44050687
5303.74000439
5303.19150342
5302.76528019
5302.50413421
5302.38490622
5346.92913134
5346.7943447
5346.5420189
5346.12224347
5345.59833385
5344.92870327
5344.15231263
5343.24930701
5342.24085063
5341.12219137
5339.90585796
5338.59494398
5337.19906139
5335.72500295
5334.18196559
5332.57858955
5330.92447707
5329.22934061
5327.50332719
5325.75683516
5324.00046245
5322.2448047
5320.50075471
5318.7791226
5317.09064224
5315.44585934
5313.85530102
5312.32878019
5310.87660298
5309.50702776
5308.23076979
5307.05276578
5305.98634358
5305.02941357
5304.20293763
5303.49148846
5302.93064099
5302.4853296
5302.20608183
5302.05048697
5346.62688343
5346.4993203
5346.25534075
5345.83247417
5345.30259639
5344.62488326
5343.83906865
5342.92659752
5341.90771029
5340.77845308
5339.55070278
5338.22792636
5336.81948779
5335.3323687
5333.77573553
5332.15835268
5330.48987843
5328.78012618
5327.03931729
5325.27795558
5323.50666594
5321.73619922
5319.97749867
5318.24140921
5316.53876011
5314.88014824
5313.27613982
5311.73662392
5310.27186711
5308.89025608
5307.60229123
5306.4131569
5305.33558464
5304.36774152
5303.52940541
5302.80425809
5302.227126
5301.75730538
5301.45232492
5301.26573591
5346.13914551
5346.01161801
5345.76407674
5345.33267631
5344.79195294
5344.10182245
5343.3019026
5342.37449051
5341.33911227
5340.19243658
5338.94588673
5337.60328443
5336.17385507
5334.66480701
5333.08535194
5331.44443238
5329.75182851
5328.01751017
5326.25184083
5324.46546571
5322.66913356
5320.8737409
5319.09036221
5317.32994937
5315.60343942
5313.92152415
5312.29482893
5310.73332012
5309.24723278
5307.84503471
5306.53702641
5305.32853324
5304.23186998
5303.24547591
5302.38880717
5301.64576655
5301.05254484
5300.5674011
5300.25419675
5300.06310112
5345.52728751
5345.3994258
5345.1457437
5344.70346113
5344.14827712
5343.44114256
5342.6218373
5341.6734397
5340.6150755
5339.44393589
5338.1711424
5336.80082344
5335.34214567
5333.80254211
5332.19132044
5330.51763216
5328.79143144
5327.02289358
5325.22258464
5323.40134531
5321.57010526
5319.73998681
5317.92223136
5316.12795986
5314.36828752
5312.65406353
5310.99605514
5309.40438209
5307.88935945
5306.45962028
5305.12542994
5303.89233479
5302.77243749
5301.76448843
5300.88764844
5300.12614457
5299.51640988
5299.01701807
5298.69395146
5298.49926466
5344.74592512
5344.61738107
5344.35551456
5343.90073352
5343.32856559
5342.60105707
5341.75813496
5340.78348831
5339.69612673
5338.49366661
5337.18716261
5335.78104708
5334.28455746
5332.70538724
5331.05303156
5329.33690547
5327.56720524
5325.75436935
5323.90922924
5322.04287273
5320.16649254
5318.29146534
5316.42926567
5314.59124673
5312.78874356
5311.03281502
5309.33441614
5307.7038564
5306.15158808
5304.68642755
5303.31870773
5302.05420072
5300.90501844
5299.87030732
5298.9692718
5298.18691449
5297.55984668
5297.04837423
5296.71775599
5296.52458192
5343.83832433
5343.70837451
5343.43704818
5342.96810236
5342.37658279
5341.62545445
5340.75497847
5339.7493002
5338.62757758
5337.3877795
5336.0410753
5334.5921937
5333.05055097
5331.42413742
5329.72270392
5327.95597165
5326.13444143
5324.26886548
5322.37039168
5320.45041012
5318.52042793
5316.59213049
5314.6772719
5312.78748971
5310.93438829
5309.12928647
5307.38338399
5305.70723046
5304.11149243
5302.60522062
5301.19893089
5299.89866298
5298.71670346
5297.65258418
5296.72569949
5295.92181585
5295.27745519
5294.75493462
5294.4177851
5294.22774721
5342.78163215
5342.65048015
5342.36978893
5341.88596934
5341.27361248
5340.49633271
5339.59492011
5338.55385859
5337.39269338
5336.10971936
5334.71639739
5333.21778672
5331.62360831
5329.94220165
5328.18365806
5326.35806973
5324.47630404
5322.54948582
5320.58914019
5318.60701621
5316.61498916
5314.62509762
5312.64942554
5310.69994142
5308.78855992
5306.92690131
5305.12645074
5303.39803244
5301.75257318
5300.1993789
5298.74921807
5297.40839286
5296.18947453
5295.09235046
5294.13670285
5293.30903252
5292.64564058
5292.11115734
5291.76646244
5291.58016887
5341.60028875
5341.46725737
5341.17626426
5340.67609157
5340.04095888
5339.23485836
5338.29925878
5337.21884455
5336.01371711
5334.68246085
5333.2369616
5331.68263946
5330.02961254
5328.28662448
5326.46418365
5324.57280498
5322.62378548
5320.62867666
5318.59943271
5316.54820993
5314.48729831
5312.42913046
5310.38616082
5308.37072591
5306.39508637
5304.47119732
5302.61086559
5300.82522076
5299.12549547
5297.52127952
5296.02366243
5294.63922605
5293.38092858
5292.24899354
5291.26352481
5290.411681
5289.72962464
5289.18413724
5288.83348129
5288.65237882
5340.28830503
5340.15347843
5339.85213639
5339.33484625
5338.67560956
5337.83852401
5336.86591672
5335.74257792
5334.48933058
5333.10504919
5331.60217401
5329.98653468
5328.26874532
5326.45801563
5324.56534609
5322.60173895
5320.57898375
5318.50911557
5316.40456709
5314.27795235
5312.14201899
5310.00963188
5307.89365263
5305.80681651
5303.76175796
5301.77078976
5299.84606294
5297.9990301
5296.24125278
5294.58260978
5293.03454244
5291.60389215
5290.30404687
5289.13549372
5288.11880641
5287.24167263
5286.54013005
5285.98307658
5285.62602927
5285.45040642
5338.86025136
5338.7232334
5338.41078457
5337.87512151
5337.19012798
5336.31982756
5335.30752254
5334.13800781
5332.8329478
5331.39150158
5329.82676217
5328.14501317
5326.3574501
5324.47380468
5322.50563969
5320.46450388
5318.36273735
5316.21290956
5314.02798252
5311.82106768
5309.60540831
5307.39433265
5305.20113885
5303.03898186
5300.92088922
5298.85954548
5296.8674591
5294.95641226
5293.13831203
5291.42332746
5289.82327624
5288.34524863
5287.00311049
5285.79756821
5284.74974622
5283.84776914
5283.12765249
5282.56025685
5282.19837276
5282.0296579
5337.31930357
5337.18011414
5336.85624181
5336.30136253
5335.5893338
5334.68395469
5333.62962568
5332.41108976
5331.05096411
5329.54870778
5327.91816571
5326.16612489
5324.30444165
5322.34343474
5320.29529811
5318.17218509
5315.98704358
5313.75302918
5311.48367681
5309.19263734
5306.8936812
5304.60062691
5302.32722976
5300.08707923
5297.89360463
5295.75986613
5293.69872976
5291.7223006
5289.84282723
5288.07075026
5286.41826226
5284.89266381
5283.50830472
5282.26603453
5281.18755033
5280.26129379
5279.52328655
5278.94630178
5278.58027753
5278.41940312
5335.67660646
5335.53509334
5335.19921064
5334.6241383
5333.88374807
5332.94152371
5331.84306943
5330.57302512
5329.15505109
5327.58892409
5325.88932017
5324.06357762
5322.12428863
5320.08241785
5317.95085447
5315.74241332
5313.47070323
5311.14951334