/*--------------------------------*- C++ -*----------------------------------*\
| =========                 |                                                 |
| \\      /  F ield         | foam-extend: Open Source CFD                    |
|  \\    /   O peration     | Version:     4.1                                |
|   \\  /    A nd           | Web:         http://www.foam-extend.org         |
|    \\/     M anipulation  |                                                 |
\*---------------------------------------------------------------------------*/
FoamFile
{
    version     2.0;
    format      ascii;
    class       regIOobject;
    location    "0.5/uniform";
    object      profilingInfo;
}
// * * * * * * * * * * * * * * * * * * * * * * * * * * * * * * * * * * * * * //

profilingInfo
(

    {
        id              27;
        parentId        26;
        description     "Foam::Time::writeObject - outputTime";
        calls           5;
        totalTime       4.391224;
        childTime       0;
        onStack         1;
    }

    {
        id              26;
        parentId        1;
        description     "Foam::Time::writeObject";
        calls           57;
        totalTime       4.391517;
        childTime       4.391224;
        onStack         1;
    }

    {
        id              1;
        description     "application::main";
        calls           1;
        totalTime       85.055954;
        childTime       40.93492;
        onStack         1;
    }

    {
        id              9;
        parentId        1;
        description     "MULES::explicitSolve";
        calls           171;
        totalTime       3.941588;
        childTime       0;
        onStack         0;
    }

    {
        id              4;
        parentId        1;
        description     "functionObjectList::read";
        calls           1;
        totalTime       7e-06;
        childTime       0;
        onStack         0;
    }

    {
        id              10;
        parentId        1;
        description     "fvMatrix::solve_U";
        calls           57;
        totalTime       6.442246;
        childTime       6.193129;
        onStack         0;
    }

    {
        id              5;
        parentId        1;
        description     "fvMatrix::solve_cellDisplacement";
        calls           57;
        totalTime       1.086412;
        childTime       0.840162;
        onStack         0;
    }

    {
        id              22;
        parentId        1;
        description     "fvMatrix::solve_epsilon";
        calls           57;
        totalTime       1.558928;
        childTime       1.237369;
        onStack         0;
    }

    {
        id              24;
        parentId        1;
        description     "fvMatrix::solve_k";
        calls           57;
        totalTime       1.480639;
        childTime       1.440612;
        onStack         0;
    }

    {
        id              2;
        parentId        1;
        description     "fvMatrix::solve_pcorr";
        calls           1;
        totalTime       0.003828;
        childTime       0.003052;
        onStack         0;
    }

    {
        id              17;
        parentId        1;
        description     "fvMatrix::solve_pd";
        calls           228;
        totalTime       22.029755;
        childTime       21.867271;
        onStack         0;
    }

    {
        id              12;
        parentId        11;
        description     "lduMatrix::smoother_Ux";
        calls           57;
        totalTime       1.782499;
        childTime       0;
        onStack         0;
    }

    {
        id              14;
        parentId        13;
        description     "lduMatrix::smoother_Uy";
        calls           57;
        totalTime       1.820327;
        childTime       0;
        onStack         0;
    }

    {
        id              16;
        parentId        15;
        description     "lduMatrix::smoother_Uz";
        calls           57;
        totalTime       2.044557;
        childTime       0;
        onStack         0;
    }

    {
        id              11;
        parentId        10;
        description     "lduMatrix::solver_Ux";
        calls           57;
        totalTime       1.963398;
        childTime       1.782499;
        onStack         0;
    }

    {
        id              13;
        parentId        10;
        description     "lduMatrix::solver_Uy";
        calls           57;
        totalTime       2.000351;
        childTime       1.820327;
        onStack         0;
    }

    {
        id              15;
        parentId        10;
        description     "lduMatrix::solver_Uz";
        calls           57;
        totalTime       2.22938;
        childTime       2.044557;
        onStack         0;
    }

    {
        id              6;
        parentId        5;
        description     "lduMatrix::solver_cellDisplacementx";
        calls           57;
        totalTime       0.295012;
        childTime       0;
        onStack         0;
    }

    {
        id              7;
        parentId        5;
        description     "lduMatrix::solver_cellDisplacementy";
        calls           57;
        totalTime       0.272392;
        childTime       0;
        onStack         0;
    }

    {
        id              8;
        parentId        5;
        description     "lduMatrix::solver_cellDisplacementz";
        calls           57;
        totalTime       0.272758;
        childTime       0;
        onStack         0;
    }

    {
        id              19;
        parentId        18;
        description     "lduMatrix::solver_coarsestLevelCorr";
        calls           459;
        totalTime       0.011009;
        childTime       0;
        onStack         0;
    }

    {
        id              21;
        parentId        20;
        description     "lduMatrix::solver_coarsestLevelCorr";
        calls           276;
        totalTime       0.004859;
        childTime       0;
        onStack         0;
    }

    {
        id              20;
        parentId        18;
        description     "lduMatrix::solver_dummy";
        calls           57;
        totalTime       11.90553;
        childTime       0.004859;
        onStack         0;
    }

    {
        id              23;
        parentId        22;
        description     "lduMatrix::solver_epsilon";
        calls           57;
        totalTime       1.237369;
        childTime       0;
        onStack         0;
    }

    {
        id              25;
        parentId        24;
        description     "lduMatrix::solver_k";
        calls           57;
        totalTime       1.440612;
        childTime       0;
        onStack         0;
    }

    {
        id              3;
        parentId        2;
        description     "lduMatrix::solver_pcorr";
        calls           1;
        totalTime       0.003052;
        childTime       0;
        onStack         0;
    }

    {
        id              18;
        parentId        17;
        description     "lduMatrix::solver_pd";
        calls           228;
        totalTime       21.867271;
        childTime       11.916539;
        onStack         0;
    }
);


// ************************************************************************* //
