/*--------------------------------*- C++ -*----------------------------------*\
| =========                 |                                                 |
| \\      /  F ield         | foam-extend: Open Source CFD                    |
|  \\    /   O peration     | Version:     4.1                                |
|   \\  /    A nd           | Web:         http://www.foam-extend.org         |
|    \\/     M anipulation  |                                                 |
\*---------------------------------------------------------------------------*/
FoamFile
{
    version     2.0;
    format      ascii;
    class       volScalarField;
    location    "0.2";
    object      alpha1;
}
// * * * * * * * * * * * * * * * * * * * * * * * * * * * * * * * * * * * * * //

dimensions      [0 0 0 0 0 0 0];

internalField   nonuniform List<scalar> 
96000
(
0.999999395415
0.999999336326
0.999999390901
0.999999451771
0.999999479597
0.999999478892
0.999999465804
0.999999453092
0.999999445052
0.999999441257
0.999999439215
0.999999436876
0.999999433572
0.999999429632
0.999999425819
0.999999423041
0.999999420732
0.99999941879
0.999999417142
0.999999415967
0.999999415427
0.99999941547
0.999999416211
0.999999417667
0.999999419463
0.99999942143
0.999999424699
0.999999427652
0.999999430457
0.999999433375
0.99999943708
0.999999442279
0.999999448802
0.999999454779
0.999999456796
0.999999451884
0.999999441109
0.999999426737
0.99999941148
0.999999539411
0.999999334701
0.999999323859
0.999999392519
0.999999456871
0.999999482396
0.999999479743
0.999999466717
0.999999454795
0.999999447797
0.999999444745
0.999999443096
0.999999440974
0.999999437889
0.999999434312
0.999999430876
0.999999427854
0.999999425474
0.999999423707
0.9999994225
0.999999421836
0.999999421753
0.999999422364
0.999999423731
0.999999425849
0.999999428702
0.999999432109
0.999999435372
0.999999438468
0.999999441309
0.999999444239
0.999999448049
0.999999453486
0.999999460191
0.999999465667
0.999999465614
0.999999456532
0.999999439996
0.999999420415
0.999999407434
0.999999540215
0.999999385784
0.999999388454
0.999999466782
0.999999532298
0.999999558778
0.999999557573
0.999999546156
0.999999535775
0.999999530169
0.999999528349
0.999999527807
0.999999526723
0.99999952467
0.999999522142
0.999999519793
0.999999517971
0.999999516725
0.999999515976
0.999999515665
0.999999515808
0.999999516464
0.999999517694
0.999999519536
0.999999521974
0.999999524911
0.999999528135
0.999999531327
0.99999953415
0.999999536477
0.999999538667
0.999999541622
0.999999546259
0.999999552252
0.999999556681
0.999999554268
0.999999540176
0.99999951522
0.999999484518
0.999999452458
0.999999570866
0.999999442235
0.999999447806
0.999999527103
0.999999594715
0.999999623297
0.999999623797
0.999999613579
0.999999604088
0.999999599294
0.999999598314
0.999999598651
0.999999598471
0.999999597341
0.999999595756
0.999999594341
0.999999593425
0.999999593032
0.999999593062
0.999999593455
0.999999594208
0.999999595366
0.999999596977
0.999999599072
0.99999960164
0.999999604595
0.999999607733
0.99999961071
0.999999613139
0.999999614833
0.999999616152
0.999999618121
0.99999962189
0.999999627272
0.999999631039
0.999999626957
0.999999608767
0.99999957631
0.999999535519
0.999999494464
0.999999593754
0.999999466122
0.999999468753
0.999999548965
0.999999618697
0.999999649165
0.999999650534
0.999999640441
0.999999630872
0.999999626109
0.999999625363
0.999999626088
0.999999626371
0.999999625745
0.999999624674
0.999999623744
0.999999623308
0.999999623336
0.999999623728
0.99999962442
0.999999625389
0.999999626678
0.99999962834
0.999999630398
0.999999632854
0.999999635641
0.999999638563
0.999999641266
0.999999643305
0.999999644426
0.999999644977
0.999999646098
0.999999649226
0.999999654375
0.999999658214
0.999999653774
0.99999963351
0.999999596617
0.999999550003
0.999999504178
0.999999597545
0.999999462367
0.999999463448
0.999999545238
0.999999616766
0.999999648111
0.999999649415
0.999999638636
0.999999628352
0.999999623115
0.999999622194
0.999999622947
0.999999623366
0.99999962291
0.999999622017
0.999999621287
0.999999620984
0.999999621099
0.999999621519
0.999999622164
0.999999623036
0.999999624166
0.999999625588
0.999999627346
0.99999962946
0.999999631885
0.99999963445
0.999999636786
0.999999638374
0.999999638936
0.999999638719
0.999999638928
0.999999641287
0.999999646315
0.999999650621
0.999999646937
0.999999626867
0.999999588998
0.999999540694
0.999999493619
0.999999589257
0.999999448559
0.999999450788
0.999999534421
0.999999607238
0.999999638703
0.999999639298
0.999999627488
0.999999616308
0.999999610386
0.999999609246
0.999999609985
0.999999610474
0.99999961011
0.99999960927
0.999999608381
0.999999607962
0.999999607996
0.999999608255
0.999999608673
0.999999609253
0.999999610033
0.999999611051
0.999999612423
0.999999614101
0.999999616096
0.99999961826
0.999999620225
0.999999621603
0.999999621827
0.999999620879
0.999999620486
0.999999622067
0.999999626661
0.99999963135
0.99999962864
0.999999609973
0.999999573327
0.999999525681
0.999999479643
0.999999579044
0.999999439075
0.99999944221
0.999999527634
0.999999601349
0.99999963263
0.999999632386
0.999999619577
0.999999607465
0.999999602522
0.999999601261
0.999999601867
0.999999602508
0.999999602312
0.999999601676
0.999999601017
0.999999600579
0.999999600457
0.999999600609
0.99999960097
0.999999601468
0.999999602152
0.999999603033
0.999999604004
0.99999960524
0.999999606795
0.999999608513
0.999999610259
0.999999611424
0.999999611226
0.999999609812
0.999999608578
0.999999609112
0.999999611652
0.999999616465
0.999999614295
0.99999959676
0.999999561487
0.999999514866
0.999999470693
0.999999571899
0.999999437084
0.999999440634
0.99999952765
0.999999602077
0.999999633157
0.99999963218
0.999999618596
0.999999605978
0.999999600498
0.999999599228
0.999999600121
0.999999600857
0.999999600852
0.999999600336
0.999999599872
0.999999599671
0.999999599748
0.999999599915
0.99999960011
0.999999600424
0.99999960082
0.999999601366
0.999999602127
0.999999603209
0.999999604542
0.999999606207
0.999999607759
0.999999608594
0.999999608268
0.999999606617
0.999999605148
0.99999960522
0.999999607034
0.999999610399
0.999999608102
0.999999590909
0.999999556242
0.999999509991
0.999999466004
0.999999568103
0.999999437519
0.999999444203
0.999999532291
0.99999960734
0.999999638326
0.999999636795
0.999999622648
0.999999609915
0.999999603407
0.999999602435
0.999999603727
0.999999604879
0.999999605152
0.999999604905
0.999999604644
0.999999604591
0.999999604675
0.999999604809
0.999999604934
0.999999605027
0.999999605165
0.999999605408
0.999999605829
0.999999606521
0.999999607587
0.999999608922
0.999999610272
0.999999611076
0.999999610665
0.999999608848
0.999999606617
0.999999606121
0.999999608095
0.999999610581
0.999999607507
0.99999958991
0.999999555046
0.999999508327
0.999999463529
0.999999565554
0.999999441197
0.99999944895
0.999999538018
0.999999613671
0.999999644666
0.999999642711
0.999999628131
0.999999615219
0.999999609004
0.999999608337
0.999999610004
0.999999611523
0.999999612128
0.999999612141
0.999999612065
0.999999612125
0.999999612275
0.999999612403
0.999999612453
0.999999612443
0.999999612421
0.999999612447
0.999999612618
0.999999613038
0.999999613811
0.999999614934
0.999999616172
0.999999616913
0.999999616436
0.999999614379
0.999999611322
0.999999609329
0.999999610323
0.999999612053
0.999999607872
0.999999589518
0.999999553959
0.999999506371
0.999999459926
0.999999562146
0.999999444341
0.999999452523
0.999999542544
0.999999618812
0.999999649861
0.999999647568
0.99999963262
0.999999619576
0.999999613499
0.999999613126
0.99999961513
0.99999961695
0.999999617796
0.999999617985
0.999999618022
0.999999618126
0.999999618248
0.999999618272
0.999999618142
0.9999996179
0.999999617599
0.999999617331
0.999999617157
0.999999617222
0.999999617655
0.999999618495
0.999999619506
0.999999620092
0.999999619464
0.999999617037
0.999999613934
0.99999961174
0.999999610945
0.999999610973
0.999999605933
0.999999586737
0.999999550392
0.99999950176
0.999999453737
0.999999556465
0.999999445739
0.999999454433
0.999999545441
0.99999962235
0.999999653481
0.999999650884
0.999999635592
0.999999622424
0.999999616462
0.999999616345
0.999999618624
0.999999620667
0.999999621663
0.999999621936
0.999999621991
0.99999962204
0.999999622032
0.999999621853
0.999999621477
0.999999620897
0.999999620308
0.999999619959
0.999999619566
0.999999619277
0.999999619401
0.999999619909
0.999999620418
0.999999620718
0.999999619828
0.999999616867
0.999999612768
0.999999609486
0.999999607555
0.999999606708
0.999999600565
0.999999580605
0.999999543575
0.999999493936
0.999999444332
0.999999548327
0.999999446272
0.999999455431
0.999999547501
0.999999625061
0.999999656286
0.999999653388
0.999999637752
0.999999624444
0.999999618562
0.999999618644
0.999999621123
0.999999623303
0.99999962436
0.999999624622
0.999999624596
0.999999624493
0.999999624304
0.999999624153
0.999999623761
0.999999622736
0.999999621705
0.999999620416
0.999999619449
0.99999961834
0.999999617733
0.999999617776
0.99999961824
0.999999618459
0.999999617621
0.999999614266
0.999999609538
0.999999604747
0.999999601775
0.999999599602
0.999999592364
0.999999571657
0.99999953404
0.999999483396
0.999999432015
0.99999953819
0.999999446529
0.999999456649
0.999999549725
0.999999627916
0.999999659223
0.999999656011
0.999999640015
0.999999626537
0.999999620691
0.999999620915
0.999999623524
0.999999625762
0.999999626794
0.999999626953
0.999999626755
0.999999626584
0.999999626314
0.999999625768
0.999999624499
0.999999622894
0.999999621253
0.999999619634
0.99999961783
0.999999616087
0.999999615149
0.999999614989
0.999999615189
0.999999615266
0.999999614194
0.999999610457
0.99999960497
0.999999598953
0.999999594462
0.999999590717
0.999999582276
0.999999560767
0.999999522507
0.999999470843
0.999999417921
0.999999526443
0.999999447394
0.999999458743
0.999999552745
0.999999631512
0.99999966287
0.999999659314
0.999999642932
0.999999629253
0.999999623402
0.999999623714
0.99999962639
0.999999628615
0.999999629543
0.999999629521
0.999999629049
0.999999628622
0.999999627907
0.999999626578
0.999999624915
0.999999622718
0.999999620435
0.999999618107
0.999999615704
0.999999613514
0.99999961223
0.999999611639
0.999999611627
0.999999611535
0.999999610118
0.999999606146
0.999999599819
0.999999592455
0.999999586173
0.99999958067
0.999999570834
0.9999995484
0.999999509411
0.999999456647
0.999999402401
0.999999513349
0.999999449281
0.9999994619
0.999999556749
0.999999636018
0.99999966737
0.999999663444
0.999999646652
0.999999632748
0.999999626861
0.999999627218
0.999999629907
0.999999632055
0.999999632809
0.999999632524
0.999999631685
0.999999630643
0.999999629584
0.999999627504
0.999999625043
0.999999622241
0.999999619255
0.999999616336
0.999999613532
0.999999610924
0.999999608903
0.999999607757
0.999999607467
0.999999607277
0.999999605729
0.999999601578
0.999999594311
0.999999585383
0.999999577089
0.999999569586
0.999999558134
0.999999534636
0.99999949495
0.999999440874
0.999999385263
0.99999949902
0.999999452136
0.999999466078
0.999999561687
0.999999641379
0.999999672685
0.999999668354
0.99999965114
0.999999636996
0.999999631052
0.999999631421
0.99999963408
0.999999636089
0.999999636601
0.99999963597
0.999999634725
0.999999632957
0.99999963096
0.999999628532
0.999999625453
0.999999622018
0.9999996183
0.999999614836
0.999999611511
0.999999607959
0.999999605155
0.999999603772
0.999999603338
0.999999603052
0.999999601445
0.99999959682
0.999999588489
0.999999577795
0.99999956722
0.999999557429
0.999999544136
0.999999519445
0.999999478932
0.999999423695
0.999999366498
0.999999483557
0.999999456233
0.999999471128
0.999999567473
0.999999647514
0.999999678735
0.999999673984
0.999999656345
0.999999641952
0.999999635938
0.999999636291
0.999999638878
0.999999640686
0.999999640893
0.999999639833
0.999999638068
0.999999635805
0.999999633209
0.999999629811
0.999999625905
0.999999621745
0.999999617277
0.999999612962
0.999999609023
0.999999604814
0.999999601873
0.99999960016
0.999999599471
0.999999599055
0.999999597266
0.999999592081
0.999999582544
0.999999569856
0.9999995567
0.999999544307
0.999999528951
0.999999502966
0.999999461625
0.999999405197
0.999999346508
0.999999467281
0.999999461027
0.999999477048
0.999999574063
0.99999965439
0.999999685487
0.999999680308
0.99999966224
0.999999647591
0.999999641489
0.999999641794
0.999999644259
0.99999964582
0.999999645637
0.999999644076
0.999999641731
0.999999638844
0.999999635318
0.999999631326
0.999999626836
0.999999621922
0.999999616817
0.999999611679
0.99999960675
0.999999602411
0.999999599029
0.999999596806
0.99999959588
0.999999595444
0.999999593483
0.999999587702
0.999999576816
0.999999561884
0.999999545875
0.99999953058
0.999999512978
0.999999485663
0.999999443606
0.999999386097
0.999999326895
0.999999450816
0.999999466641
0.999999483814
0.999999581443
0.999999661983
0.999999692922
0.999999687293
0.999999668784
0.999999653861
0.999999647643
0.999999647857
0.999999650139
0.999999651395
0.999999650747
0.999999648615
0.999999645613
0.999999642016
0.999999637832
0.999999633078
0.999999627833
0.999999622264
0.999999616552
0.999999610853
0.999999605384
0.999999600566
0.999999596681
0.999999593986
0.999999592871
0.999999592458
0.99999959045
0.999999584042
0.999999571688
0.999999554301
0.999999535249
0.999999516805
0.999999496813
0.999999468192
0.999999425608
0.999999367244
0.999999306151
0.999999435007
0.999999472983
0.99999949137
0.999999589549
0.999999670225
0.999999700965
0.999999694852
0.999999675882
0.999999660651
0.99999965427
0.999999654336
0.999999656358
0.999999657241
0.999999656053
0.999999653281
0.999999649571
0.999999645231
0.999999640318
0.999999634848
0.999999628953
0.999999622813
0.999999616594
0.999999610458
0.999999604607
0.99999959934
0.999999594914
0.99999959264
0.999999591441
0.999999590868
0.99999958837
0.999999581324
0.999999567359
0.999999547625
0.999999525075
0.999999503188
0.999999480622
0.999999450777
0.999999408069
0.999999349123
0.999999275662
0.999999421186
0.999999479947
0.99999949956
0.999999598267
0.999999678972
0.999999709456
0.999999702832
0.999999683372
0.999999667792
0.999999661182
0.999999661025
0.999999662721
0.99999966313
0.999999661329
0.999999657856
0.999999653401
0.999999648315
0.999999642686
0.999999636579
0.999999630154
0.999999623579
0.999999617014
0.999999610585
0.999999604469
0.999999598914
0.999999594053
0.999999591913
0.999999590571
0.99999958961
0.999999587291
0.999999579428
0.999999563656
0.999999541584
0.999999515064
0.999999489665
0.999999464672
0.99999943403
0.999999391784
0.999999332346
0.999999270846
0.999999409173
0.999999487471
0.999999508252
0.999999607364
0.999999688005
0.999999718188
0.999999711016
0.999999691048
0.999999675084
0.999999668179
0.99999966772
0.999999669017
0.999999668849
0.999999666364
0.999999662142
0.999999656929
0.999999651124
0.999999644855
0.999999638244
0.999999631439
0.999999624625
0.99999961792
0.999999611394
0.999999605187
0.999999599419
0.999999594081
0.999999592123
0.99999959037
0.999999589043
0.999999586623
0.999999577759
0.999999560702
0.999999534985
0.99999950538
0.999999476501
0.99999944936
0.999999418665
0.999999377557
0.999999319463
0.999999268984
0.999999401234
0.999999495327
0.999999517204
0.999999616549
0.999999697044
0.999999726879
0.999999719133
0.999999698679
0.999999682321
0.999999675081
0.999999674254
0.999999675068
0.999999674251
0.999999671024
0.999999666029
0.999999660081
0.999999653636
0.999999646872
0.999999639929
0.999999632982
0.999999626187
0.999999619604
0.999999613225
0.999999607083
0.999999601123
0.999999595483
0.999999593499
0.999999591662
0.999999589618
0.99999958597
0.999999576303
0.999999557827
0.999999527727
0.999999495855
0.99999946343
0.999999434581
0.999999404769
0.999999366014
0.999999311927
0.99999926969
0.999999399343
0.999999503225
0.999999526034
0.999999625579
0.999999705772
0.999999735204
0.999999726923
0.999999705984
0.999999689255
0.999999681681
0.999999680458
0.999999680729
0.99999967922
0.999999675223
0.999999669469
0.999999662857
0.999999655904
0.999999648848
0.999999641844
0.999999635067
0.999999628625
0.999999622492
0.999999616546
0.999999610556
0.999999604509
0.999999599604
0.999999595535
0.99999959289
0.999999590323
0.999999585628
0.999999575077
0.999999552693
0.999999519623
0.999999485067
0.999999449848
0.999999419905
0.999999391159
0.999999357765
0.999999309959
0.999999272803
0.999999405293
0.999999510979
0.999999534646
0.999999634128
0.999999713864
0.999999742808
0.99999973395
0.999999712582
0.999999695526
0.999999687645
0.999999686033
0.999999685746
0.999999683534
0.999999678774
0.999999672311
0.999999665135
0.999999657871
0.999999650787
0.999999644058
0.999999637828
0.999999632128
0.999999626806
0.999999621578
0.999999616054
0.999999609941
0.999999604454
0.999999599669
0.999999595181
0.999999590792
0.99999958472
0.999999572069
0.999999546194
0.999999510498
0.999999471152
0.999999434521
0.999999404439
0.999999378615
0.999999353444
0.999999312169
0.999999276491
0.999999419212
0.999999518544
0.999999542927
0.999999642049
0.999999721081
0.999999749365
0.999999739857
0.999999718014
0.999999700629
0.99999969245
0.999999690456
0.999999689614
0.999999686688
0.999999681156
0.999999674029
0.999999666461
0.999999659091
0.999999652239
0.9999996461
0.99999964078
0.999999636204
0.999999632031
0.999999627766
0.999999622763
0.999999616622
0.999999609617
0.999999602669
0.99999959633
0.999999590036
0.999999581322
0.999999565419
0.999999536293
0.999999497284
0.999999452741
0.999999415215
0.999999386761
0.99999937049
0.999999351855
0.999999320634
0.999999280155
0.999999439096
0.999999526098
0.999999551007
0.999999649493
0.999999727438
0.999999754788
0.999999744406
0.999999721951
0.999999704115
0.999999695543
0.99999969309
0.999999691613
0.999999687933
0.999999681661
0.999999673918
0.999999665955
0.999999658572
0.999999652141
0.999999646833
0.999999642661
0.999999639392
0.999999636517
0.999999633168
0.999999628308
0.999999621597
0.999999613264
0.999999604049
0.999999594574
0.999999584326
0.999999571539
0.999999551924
0.99999951858
0.999999475519
0.99999942778
0.999999389489
0.999999364724
0.999999358653
0.999999350324
0.999999335621
0.99999931776
0.999999464103
0.999999534121
0.999999559519
0.999999656944
0.999999733448
0.99999975955
0.999999747974
0.999999724651
0.99999970608
0.999999696843
0.999999693707
0.999999691455
0.999999686868
0.999999679663
0.999999671146
0.999999662724
0.999999655284
0.999999649241
0.999999644737
0.999999641691
0.99999963971
0.999999637971
0.999999635088
0.999999629986
0.999999622104
0.999999611402
0.999999598529
0.999999584254
0.999999568791
0.999999551196
0.999999526815
0.999999487812
0.999999440321
0.999999392671
0.999999353584
0.999999333511
0.999999335571
0.999999347415
0.999999351813
0.999999348957
0.999999493574
0.999999543282
0.999999569173
0.999999665331
0.99999974015
0.999999764809
0.999999751812
0.999999727344
0.999999707669
0.999999697363
0.999999693166
0.999999689748
0.99999968396
0.999999675595
0.999999666085
0.99999965697
0.999999649233
0.999999643326
0.999999639349
0.999999637096
0.999999635963
0.999999634644
0.999999631553
0.999999625441
0.999999615328
0.999999600989
0.99999958314
0.999999563067
0.999999541614
0.99999951715
0.999999485408
0.999999441967
0.999999390618
0.999999342743
0.999999300154
0.9999992873
0.999999308161
0.999999340179
0.999999366361
0.999999381754
0.999999525943
0.999999554047
0.999999580543
0.999999675383
0.999999748594
0.999999771923
0.999999757606
0.999999731903
0.999999710909
0.999999699139
0.999999693437
0.999999688529
0.999999681206
0.999999671406
0.999999660657
0.999999650581
0.999999642251
0.999999636144
0.999999632305
0.999999630401
0.999999629495
0.999999627882
0.999999623912
0.999999615944
0.999999602657
0.999999583762
0.999999560285
0.999999533746
0.999999504365
0.99999947123
0.999999432632
0.999999386597
0.999999332755
0.999999270763
0.99999923243
0.999999237245
0.999999279244
0.999999335892
0.999999389002
0.999999422456
0.999999566111
0.999999566002
0.999999593054
0.999999686705
0.999999758617
0.999999781078
0.999999765965
0.999999739389
0.999999717216
0.999999703877
0.999999696419
0.999999689716
0.999999680748
0.999999669437
0.999999657353
0.999999646217
0.999999637158
0.99999963066
0.999999626716
0.999999624838
0.999999623669
0.999999621382
0.999999616134
0.99999960586
0.999999589016
0.999999565293
0.999999535693
0.999999502014
0.999999465625
0.999999426328
0.999999382541
0.999999331187
0.999999264189
0.999999228166
0.999999221511
0.999999229302
0.999999253112
0.99999934895
0.999999428379
0.999999480956
0.999999622608
0.999999577408
0.999999604527
0.999999696783
0.999999767519
0.999999789613
0.999999774458
0.99999974767
0.999999724872
0.999999710275
0.999999701166
0.999999692729
0.999999682151
0.999999669476
0.999999656297
0.99999964433
0.999999634725
0.999999627969
0.999999624001
0.999999622121
0.99999962068
0.999999617855
0.999999611451
0.999999599127
0.999999579228
0.999999551427
0.999999516838
0.99999947753
0.99999943529
0.999999390761
0.999999343603
0.999999284354
0.999999228166
0.999999220189
0.99999921372
0.999999221511
0.999999274649
0.999999396218
0.999999499164
0.999999570796
0.999999704305
0.999999585623
0.999999611612
0.99999970138
0.99999977017
0.999999791755
0.999999776947
0.999999750672
0.999999727914
0.999999712619
0.999999702252
0.999999692373
0.999999680484
0.999999666769
0.999999652836
0.9999996404
0.999999630598
0.999999623889
0.999999620178
0.999999618511
0.999999617157
0.999999614254
0.999999607358
0.999999593993
0.999999572496
0.999999542594
0.999999505522
0.999999463643
0.99999941972
0.999999375134
0.999999327372
0.999999269385
0.999999232739
0.999999224648
0.999999220413
0.99999922932
0.999999357667
0.999999486289
0.999999609662
0.999999699149
0.999999814326
0.999999589274
0.999999612222
0.999999697273
0.999999761919
0.99999978137
0.999999766621
0.999999741253
0.999999718987
0.99999970353
0.999999692205
0.999999681057
0.999999668008
0.99999965342
0.999999638915
0.99999962617
0.9999996163
0.999999609753
0.999999606392
0.999999605046
0.999999604085
0.999999601597
0.999999595042
0.999999581956
0.999999560729
0.99999953127
0.999999494975
0.999999454494
0.999999413379
0.999999373352
0.999999332191
0.999999293727
0.999999255759
0.999999232739
0.999999248687
0.999999343622
0.999999464786
0.999999612298
0.999999753927
0.999999861065
0.999999941373
0.999999590833
0.999999608632
0.999999685943
0.999999743111
0.999999757982
0.99999974216
0.999999717474
0.999999695887
0.999999680299
0.999999668071
0.999999655591
0.999999641181
0.99999962545
0.999999610273
0.999999596887
0.999999586471
0.999999579972
0.99999957668
0.999999575473
0.999999574912
0.999999573052
0.999999567368
0.999999555458
0.999999535744
0.999999508559
0.999999475537
0.999999439451
0.999999403824
0.999999371143
0.999999342071
0.999999316651
0.999999299086
0.999999303334
0.999999352296
0.999999447554
0.999999586902
0.999999751896
0.999999907073
1.00000001126
1.00000006354
0.999999592324
0.999999606328
0.999999672643
0.99999971966
0.999999728377
0.999999710456
0.999999685744
0.999999664386
0.999999648261
0.99999963461
0.999999620248
0.999999603901
0.99999958627
0.999999569162
0.999999554395
0.999999542837
0.999999535067
0.999999530852
0.99999952931
0.999999529138
0.999999527722
0.999999522594
0.999999511706
0.999999494332
0.999999469627
0.99999943926
0.999999407021
0.999999376902
0.99999935179
0.999999333099
0.999999324483
0.999999321553
0.999999351991
0.999999420617
0.999999534145
0.999999690783
0.999999870945
1.00000002767
1.00000015135
1.00000017025
0.999999593791
0.999999608652
0.999999662229
0.999999698561
0.999999701713
0.999999681684
0.999999656777
0.99999963515
0.999999617983
0.999999602512
0.999999585831
0.999999567051
0.999999547174
0.999999527947
0.999999511079
0.999999497808
0.999999488753
0.999999484023
0.999999482541
0.999999482632
0.999999482306
0.999999477545
0.999999467354
0.999999455828
0.999999435341
0.999999404463
0.999999373014
0.999999348856
0.999999334226
0.99999932603
0.999999322635
0.99999932911
0.999999370505
0.999999454722
0.999999583089
0.999999755151
0.999999939915
1.00000011173
1.00000024161
1.00000022659
0.999999692308
0.999999709364
0.999999741987
0.99999976198
0.999999759993
0.999999744003
0.999999725027
0.999999708347
0.999999694289
0.999999680879
0.999999666355
0.999999650372
0.999999633822
0.999999618107
0.999999604529
0.999999594004
0.999999586977
0.999999583405
0.999999582647
0.999999583164
0.999999582938
0.999999580146
0.999999573138
0.999999560763
0.999999543092
0.999999521813
0.999999500084
0.999999481045
0.999999466648
0.99999945902
0.999999460869
0.999999477697
0.999999517957
0.999999590657
0.999999699939
0.999999841896
0.999999986037
1.00000012242
1.00000021015
1.00000016617
0.999999384144
0.999999365505
0.999999424853
0.99999947907
0.999999499664
0.99999949527
0.999999482103
0.999999470443
0.999999463467
0.999999460096
0.999999457968
0.999999455382
0.999999451909
0.999999447996
0.999999444207
0.999999440695
0.99999943786
0.999999435701
0.99999943414
0.999999433119
0.999999432634
0.999999432814
0.999999433759
0.999999435468
0.999999437923
0.999999440929
0.999999443785
0.99999944655
0.999999449166
0.999999451961
0.999999455652
0.999999460889
0.999999467347
0.99999947291
0.999999474064
0.999999468239
0.999999457327
0.99999944729
0.999999442074
0.999999572812
0.999999363368
0.999999403686
0.999999482367
0.999999536186
0.99999955413
0.999999549338
0.99999953745
0.999999527568
0.999999522158
0.999999519886
0.999999518456
0.999999516387
0.999999513445
0.99999951015
0.999999507096
0.999999504583
0.999999502641
0.999999501192
0.999999500196
0.999999499676
0.999999499701
0.999999500345
0.999999501647
0.999999503584
0.999999506043
0.999999508809
0.999999511579
0.99999951408
0.999999516277
0.999999518586
0.999999521854
0.999999526799
0.999999532954
0.999999537721
0.999999536905
0.999999527375
0.999999510969
0.999999492653
0.999999470408
0.999999579515
0.999999418924
0.999999478257
0.99999956311
0.999999618549
0.99999963773
0.999999634814
0.999999624947
0.999999616816
0.999999612802
0.999999611657
0.999999611222
0.999999610129
0.999999608204
0.999999605965
0.999999603962
0.999999602459
0.99999960146
0.99999960088
0.999999600667
0.999999600839
0.99999960145
0.999999602554
0.999999604181
0.999999606307
0.999999608827
0.999999611524
0.999999614081
0.999999616191
0.999999617788
0.999999619308
0.999999621688
0.999999625786
0.99999963115
0.999999634825
0.999999631787
0.999999617717
0.999999593471
0.999999563057
0.99999952488
0.999999606589
0.999999468616
0.99999952722
0.999999613708
0.999999671346
0.999999692674
0.999999691525
0.999999682871
0.999999675552
0.999999672171
0.99999967164
0.999999671873
0.999999671508
0.99999967036
0.99999966892
0.999999667707
0.999999666956
0.999999666653
0.999999666703
0.999999667044
0.999999667685
0.999999668664
0.999999670026
0.999999671796
0.999999673958
0.99999967642
0.999999678972
0.999999681281
0.999999682996
0.99999968401
0.999999684761
0.999999686303
0.999999689698
0.99999969461
0.999999697797
0.999999693357
0.999999675661
0.999999644716
0.999999605025
0.999999557098
0.99999962469
0.999999485044
0.999999541004
0.999999628818
0.999999688667
0.999999711658
0.999999711347
0.99999970285
0.999999695419
0.999999691963
0.999999691518
0.999999691985
0.999999691958
0.999999691193
0.999999690155
0.999999689344
0.99999968895
0.99999968896
0.999999689268
0.999999689805
0.999999690577
0.999999691616
0.999999692958
0.999999694633
0.999999696637
0.999999698895
0.999999701207
0.999999703229
0.999999704565
0.999999705055
0.999999705133
0.999999705969
0.999999708871
0.999999713722
0.999999717146
0.999999712583
0.999999693361
0.999999658887
0.999999614349
0.999999562255
0.999999625982
0.999999478215
0.99999953403
0.999999623876
0.999999685599
0.999999709479
0.999999709081
0.999999699999
0.999999691921
0.999999688021
0.999999687375
0.999999687825
0.999999687881
0.999999687249
0.999999686352
0.999999685656
0.999999685353
0.999999685402
0.999999685696
0.999999686174
0.999999686834
0.999999687706
0.999999688827
0.999999690233
0.999999691933
0.999999693873
0.999999695871
0.999999697577
0.999999698542
0.999999698556
0.999999698017
0.999999698172
0.999999700601
0.999999705457
0.999999709462
0.999999705709
0.999999686843
0.999999651745
0.999999605717
0.999999552031
0.999999617607
0.999999465333
0.999999522825
0.9999996148
0.999999677811
0.999999701861
0.999999700843
0.999999690867
0.999999682013
0.999999677603
0.999999676694
0.999999677049
0.999999677106
0.9999996765
0.99999967565
0.999999675085
0.999999674833
0.99999967482
0.999999675002
0.999999675317
0.999999675767
0.999999676381
0.999999677203
0.99999967827
0.999999679612
0.9999996812
0.999999682876
0.999999684283
0.999999684826
0.999999684362
0.999999683351
0.999999682796
0.999999684687
0.999999689499
0.999999693897
0.999999691096
0.999999673374
0.999999639151
0.999999593444
0.999999539277
0.999999608214
0.999999456536
0.999999516378
0.99999961005
0.999999673816
0.999999697665
0.999999695878
0.999999685047
0.999999675536
0.999999670159
0.999999669137
0.999999669628
0.999999669765
0.999999669282
0.999999668511
0.999999667936
0.999999667714
0.999999667727
0.999999667829
0.999999667962
0.999999668168
0.999999668477
0.999999668952
0.999999669715
0.999999670756
0.999999672055
0.999999673503
0.999999674659
0.999999675017
0.999999674368
0.999999672919
0.999999671804
0.999999672985
0.999999677666
0.999999681997
0.999999679696
0.99999966291
0.999999629663
0.99999958456
0.999999530122
0.999999601585
0.999999454259
0.999999516258
0.99999961114
0.999999675346
0.999999698901
0.999999696413
0.999999684888
0.999999674934
0.999999669594
0.999999668673
0.999999669287
0.999999669682
0.999999669406
0.999999668831
0.999999668354
0.999999668125
0.999999668053
0.999999668064
0.999999668107
0.999999668154
0.999999668277
0.999999668522
0.999999668949
0.999999669618
0.999999670583
0.999999671684
0.999999672632
0.999999672938
0.999999672113
0.999999670314
0.999999668487
0.999999668748
0.999999672628
0.999999676645
0.999999674227
0.999999657727
0.999999624875