/*--------------------------------*- C++ -*----------------------------------*\
| =========                 |                                                 |
| \\      /  F ield         | foam-extend: Open Source CFD                    |
|  \\    /   O peration     | Version:     4.1                                |
|   \\  /    A nd           | Web:         http://www.foam-extend.org         |
|    \\/     M anipulation  |                                                 |
\*---------------------------------------------------------------------------*/
FoamFile
{
    version     2.0;
    format      ascii;
    class       volScalarField;
    location    "0.2";
    object      epsilon;
}
// * * * * * * * * * * * * * * * * * * * * * * * * * * * * * * * * * * * * * //

dimensions      [0 2 -3 0 0 0 0];

internalField   nonuniform List<scalar> 
96000
(
0.13621036703
0.135215139442
0.135804400077
0.136020248001
0.136070326854
0.13608010002
0.136081536681
0.136081276081
0.136080601406
0.136079757193
0.136078794188
0.136077725588
0.136076557129
0.136075292978
0.136073937265
0.136072494605
0.136070970327
0.136069370632
0.136067702719
0.136065974556
0.136064196307
0.136062379297
0.136060532122
0.136058669072
0.13605680226
0.136054945367
0.136053112056
0.136051315653
0.13604956844
0.136047880494
0.136046257064
0.136044690652
0.136043126015
0.136041289838
0.136037791328
0.13602562754
0.13597158678
0.135747318658
0.135145150791
0.136207636215
0.135218442693
0.154610141638
0.163169907982
0.166501771977
0.16735190009
0.167544116739
0.167585450606
0.167594796129
0.167597730361
0.167599497512
0.167601139013
0.167602863578
0.16760471612
0.16760670913
0.167608847329
0.167611132198
0.167613562588
0.167616134658
0.167618841578
0.167621673403
0.167624616327
0.167627653271
0.167630765416
0.167633929134
0.167637119227
0.167640307714
0.167643465034
0.167646560442
0.167649561895
0.167652431794
0.167655101341
0.167657332116
0.167658011804
0.167651648327
0.167611735509
0.16741638963
0.166550817481
0.163183566782
0.15462666631
0.135235257443
0.13580699278
0.163166317092
0.180036283852
0.187072391464
0.189194635031
0.18975660633
0.189892978258
0.189923931872
0.189930403269
0.18993138934
0.189931117949
0.189930509394
0.189929771628
0.189928963671
0.189928112968
0.18992723945
0.18992636033
0.189925490871
0.189924644303
0.189923831642
0.189923061321
0.189922339367
0.18992166964
0.18992105281
0.189920487378
0.189919969301
0.189919492201
0.189919046448
0.18991861415
0.189918143766
0.189917426697
0.189915509578
0.18990800497
0.189875330082
0.18973465581
0.189160932153
0.187010322765
0.179930331951
0.163103927418
0.135814910323
0.136022492666
0.166496075705
0.187069460242
0.196241827798
0.199270343095
0.200145896031
0.200375642008
0.200430855628
0.200442195824
0.20044293938
0.200441043586
0.200438343238
0.200435265712
0.200431927886
0.200428379499
0.200424655829
0.20042078886
0.200416809504
0.200412747878
0.20040863318
0.200404493417
0.200400355269
0.200396243998
0.200392182924
0.200388193622
0.20038429559
0.200380505739
0.200376835812
0.20037328062
0.200369762992
0.200365880402
0.200359770383
0.20034326197
0.200282298606
0.200043915843
0.199151719331
0.196091187865
0.186881543515
0.166389908912
0.13602608084
0.136072456584
0.167345418271
0.189190332547
0.199268790499
0.202746223541
0.203797591522
0.204085480753
0.204157373616
0.204172605425
0.204173613064
0.204170969216
0.204167200086
0.204162908511
0.204158257792
0.204153313598
0.204148120486
0.204142718639
0.204137147417
0.204131445952
0.204125653071
0.20411980703
0.204113945256
0.204108104097
0.204102318503
0.204096621874
0.204091045695
0.20408561862
0.204080362573
0.20407527532
0.204070251078
0.204064726193
0.204056149697
0.204033706181
0.203954088677
0.203655522078
0.202585568566
0.19907579136
0.188966104748
0.167223274551
0.136074961781
0.136082186801
0.167537357773
0.189751723236
0.200143624278
0.2037968383
0.204924022722
0.205239095795
0.205319392351
0.205336784993
0.205338070932
0.205335160534
0.20533095714
0.205326165202
0.205320976336
0.205315466042
0.205309684261
0.205303675574
0.205297483583
0.205291151732
0.205284723235
0.205278240784
0.205271746237
0.205265280312
0.205258882288
0.205252589774
0.20524643831
0.205240460255
0.205234680098
0.205229093567
0.205223573873
0.205217460889
0.205207824059
0.20518248643
0.205093714181
0.204767080542
0.203620276201
0.199934051554
0.189512648467
0.167409269736
0.136084842295
0.136083598533
0.167578543376
0.189887759706
0.200372936671
0.204084261065
0.205238622587
0.20556411167
0.205647818497
0.205666133889
0.205667548181
0.205664525838
0.205660136794
0.205655134014
0.205649724312
0.2056439894
0.205637983031
0.205631752867
0.205625345341
0.205618806529
0.205612182061
0.205605516797
0.205598854449
0.205592237238
0.205585705599
0.205579297902
0.20557305006
0.20556699434
0.205561154299
0.205555522159
0.205549958165
0.205543753956
0.205533805798
0.205507355593
0.205414900847
0.205077328309
0.20390232329
0.200156341498
0.189640445907
0.167446789691
0.136086884668
0.136083315669
0.167587758493
0.189918416577
0.200427762532
0.204155732403
0.205318489151
0.20564738746
0.205732249946
0.205750864211
0.205752285115
0.205749175342
0.205744669768
0.205739543035
0.205734010584
0.205728158909
0.205722045319
0.205715720543
0.205709233769
0.205702633499
0.205695967406
0.205689281942
0.205682621917
0.205676030055
0.205669546719
0.205663209591
0.20565705331
0.205651108269
0.205645395416
0.205639902908
0.205634482512
0.205628402289
0.205618484579
0.205591741767
0.205498016984
0.205156579197
0.203971975042
0.200206953639
0.189664145927
0.167452537534
0.136087502232
0.136082615442
0.167590558119
0.1899245716
0.20043868298
0.20417050421
0.205335411329
0.205665231598
0.205750393948
0.205769045766
0.205770404637
0.205767197315
0.20576258352
0.205757348798
0.205751714841
0.205745772787
0.205739583921
0.205733202598
0.205726681245
0.205720071173
0.205713422354
0.205706782913
0.20570019863
0.20569371241
0.205687363932
0.205681189385
0.205675221108
0.205669486434
0.205664002493
0.205658752627
0.205653581563
0.205647743557
0.205638025679
0.205611341058
0.205517266592
0.205174446404
0.203986304724
0.200214490634
0.189663266099
0.167451738453
0.136087921109
0.136081738532
0.167592191261
0.189925216217
0.200438961766
0.204170997592
0.205336170185
0.205666118762
0.205751290609
0.205769882607
0.205771147853
0.205767832881
0.205763108801
0.205757768718
0.205752040274
0.205746019802
0.205739773391
0.205733359809
0.205726835462
0.205720255105
0.205713671483
0.205707134669
0.205700691392
0.205694384506
0.205688252521
0.205682329332
0.205676643893
0.205671219176
0.205666067084
0.205661164867
0.205656349782
0.205650864844
0.20564147402
0.20561503136
0.205520960544
0.205177548211
0.203987585038
0.200212125944
0.189656841378
0.167449805351
0.136088382308
0.136080732385
0.167593709973
0.189924586155
0.200436560827
0.204167788722
0.20533267968
0.20566251765
0.20574760774
0.205766107724
0.205767268841
0.205763844399
0.205759013307
0.205753575871
0.205747766347
0.205741687275
0.205735410573
0.205729000443
0.205722518197
0.205716022831
0.205709570394
0.205703213217
0.205696999067
0.205690970405
0.205685163887
0.205679610077
0.205674333158
0.205669350069
0.205664665623
0.205660249081
0.205655928607
0.205650935356
0.205642012131
0.205615961998
0.205522076701
0.205178327188
0.203986925826
0.200208337065
0.189649565259
0.167448083739
0.136088948966
0.13607960702
0.167595334639
0.18992361221
0.200433323206
0.204163411308
0.20532785099
0.205657506885
0.205742490056
0.205760892052
0.205761951551
0.205758425489
0.205753500371
0.205747984571
0.205742120166
0.205736017173
0.20572975465
0.20572340349
0.205717031028
0.205710701383
0.205704474648
0.205698405778
0.205692543556
0.205686929602
0.205681597789
0.205676573929
0.205671875639
0.20566751163
0.205663477146
0.205659730858
0.205656089316
0.205651769526
0.205643491099
0.205618003278
0.205524458008
0.20518048498
0.203987652413
0.200205712799
0.189642990035
0.167447146072
0.136089653845
0.136078365038
0.16759712176
0.189922512912
0.200429684635
0.204158475804
0.205322396623
0.205651848554
0.205736722779
0.205755033515
0.205756003585
0.20575239342
0.20574739819
0.205741835754
0.205735957555
0.205729882721
0.205723699059
0.205717485604
0.205711317106
0.205705263995
0.205699391236
0.205693756842
0.20568841047
0.205683392315
0.205678732291
0.205674449689
0.205670553177
0.205667040385
0.205663893771
0.205661057989
0.205658334519
0.205654922786
0.205647515268
0.20562280037
0.205529772328
0.20518567143
0.203991314931
0.200205573551
0.189638065937
0.167447454214
0.136090525769
0.13607700748
0.167599095399
0.189921357904
0.200425770353
0.204153153143
0.205316516386
0.205645758972
0.205730532662
0.205748767342
0.205749668802
0.2057460019
0.205740972052
0.205735408415
0.205729573742
0.205723598243
0.205717580346
0.205711609154
0.20570576852
0.205700136617
0.20569478423
0.205689772938
0.205685153259
0.205680963177
0.205677227136
0.205673955631
0.205671145369
0.205668779266
0.20566682289
0.205665202472
0.205663699948
0.205661492647
0.20565524063
0.205631562237
0.205539271275
0.205195159377
0.203999163036
0.200209064166
0.18963570858
0.167449497487
0.136091594024
0.136075535386
0.167601271928
0.189920185574
0.200421638906
0.204147517175
0.205310294702
0.20563933034
0.205724018827
0.205742200017
0.20574306225
0.205739376185
0.205734359458
0.205728854749
0.205723138444
0.205717354131
0.2057116133
0.205706017407
0.205700661468
0.20569563305
0.205691010112
0.205686858467
0.205683229422
0.205680157795
0.205677660702
0.205675737004
0.20567436771
0.205673516458
0.205673126719
0.205673100808
0.205673195469
0.205672560238
0.205667816232
0.205645500747
0.205554220839
0.205210251587
0.204012498609
0.200217408587
0.189636927461
0.167453823787
0.13609288865
0.136073950338
0.167603664556
0.189919027278
0.200417335144
0.204141621601
0.205303791578
0.205632628305
0.205717253046
0.205735410549
0.205736271709
0.205732614728
0.205727671844
0.205722301872
0.205716797519
0.205711318681
0.205705992782
0.205700936331
0.205696258018
0.205692057038
0.205688420095
0.205685418119
0.205683103176
0.205681505812
0.205680633467
0.205680469939
0.205680975958
0.205682090275
0.205683727886
0.205685760276
0.205687911981
0.205689297697
0.205686491728
0.205665937672
0.205576006247
0.205232379422
0.204032760581
0.200231970876
0.189642857703
0.167461046932
0.136094439673
0.136072254809
0.167606283771
0.18991791202
0.200412901393
0.204135516803
0.205297062981
0.205625714065
0.205710302505
0.205728473446
0.205729380723
0.205725812219
0.205721017524
0.205715874584
0.205710695772
0.205705660697
0.205700916029
0.205696596722
0.20569282826
0.205689724122
0.205687381798
0.205685878465
0.205685266844
0.205685572007
0.205686789115
0.205688882726
0.205691787676
0.205695410973
0.205699631299
0.20570428088
0.205709043438
0.205712990262
0.205712639479
0.205694326545
0.205606152757
0.205263121501
0.204061539866
0.200254265113
0.189654764533
0.167471845263
0.136096275836
0.136070452417
0.167609136892
0.189916866957
0.200408379543
0.204129253324
0.20529016514
0.20561864906
0.205703234632
0.205721463527
0.205722473343
0.205719064133
0.205714505967
0.20570969955
0.205704980747
0.20570055274
0.205696585623
0.205693236772
0.205690652239
0.205688963077
0.205688279989
0.205688687794
0.205690240177
0.205692955303
0.205696812913
0.20570175339
0.205707678994
0.205714456728
0.205721919488
0.20572985003
0.205737880842
0.205745029481
0.205747746866
0.205732243924
0.205646315841
0.205304192621
0.2041005671
0.200285942477
0.189674032047
0.167486953362
0.136098422936
0.136068548086
0.167612227413
0.189915916989
0.200403811053
0.204122882198
0.205283155052
0.205611495502
0.205696117553
0.205714456264
0.205715634224
0.205712466509
0.205708247366
0.205703904342
0.205699801098
0.205696169135
0.205693206723
0.205691098449
0.205690015456
0.20569011017
0.205691509655
0.205694308347
0.205698561193
0.205704277946
0.205711419346
0.20571989585
0.205729569231
0.205740256678
0.205751733965
0.205763722111
0.205775789804
0.205786888447
0.205793388718
0.205781358568
0.205698246584
0.205357405237
0.204151673363
0.200328756584
0.189702137475
0.167507146311
0.13610090186
0.136066548312
0.167615554215
0.189915083982
0.200399236376
0.204116454491
0.205276090021
0.205604315826
0.205689019407
0.205707526829
0.205708947335
0.205706114378
0.205702350492
0.205698614625
0.205695303285
0.205692681655
0.205690981763
0.205690421009
0.20569120076
0.205693499682
0.205697464979
0.205703203072
0.205710770765
0.20572016784
0.205731332026
0.205744137206
0.205758395446
0.205773862495
0.205790243433
0.205807182612
0.20582416957
0.205840074352
0.20585117383
0.205843380899
0.205763755566
0.205424671805
0.204216976267
0.200384956845
0.18974105345
0.167533295716
0.136103729713
0.136064460765
0.167619111125
0.189914386151
0.200394694377
0.20411002063
0.20526902688
0.205597171771
0.205682007159
0.20570074859
0.205702494153
0.205700099408
0.205696919719
0.205693950524
0.205691626897
0.205690253779
0.205690103353
0.20569143211
0.205694477945
0.205699451336
0.205706524133
0.205715817714
0.205727391688
0.205741234298
0.205757255798
0.205775285895
0.205795076056
0.205816306452
0.205838594459
0.205861489008
0.205884391909
0.205906087583
0.205922896241
0.205920899127
0.205846651519
0.205512384045
0.204312937167
0.20047921352
0.189813971407
0.167569469693
0.136106999992
0.136062297876
0.167622884903
0.189913836965
0.20039022151
0.204103629692
0.205262021153
0.205590123287
0.205675145253
0.205694191482
0.205696351549
0.205694507233
0.205692051595
0.205690022308
0.205688899244
0.205689033912
0.205690745736
0.205694337587
0.205700091022
0.205708254768
0.205719030641
0.205732558621
0.205748902454
0.205768037295
0.205789840889
0.205814089637
0.205840460395
0.205868538888
0.205897845725
0.205927867666
0.205958497008
0.205988707884
0.206023350737
0.20605451562
0.206019233385
0.20572183596
0.204543335761
0.200708156592
0.190012834574
0.167696147503
0.136112054734
0.136060070662
0.167626857767
0.189913445669
0.200385851451
0.204097328617
0.205255126093
0.205583227413
0.205668494216
0.205687920196
0.205690589478
0.205689414422
0.20568783115
0.205686925625
0.205687229324
0.205689147767
0.205693055363
0.205699309593
0.205708243582
0.205720151628
0.205735271677
0.205753766617
0.205775706056
0.205801050294
0.205829638037
0.205861179099
0.205895259122
0.205931401694
0.205969822256
0.206012588879
0.206082324458
0.206167089602
0.206251110135
0.20631511395
0.20630291664
0.20602138874
0.204849643196
0.201004895573
0.190274750242
0.167890447918
0.136126418203
0.136057790108
0.16763100638
0.189913216347
0.200381614389
0.204091161474
0.205248391793
0.205576537149
0.205662109238
0.205681992359
0.205685268642
0.205684885618
0.205684328069
0.205684736656
0.205686701651
0.205690690387
0.205697140898
0.205706474007
0.205719083103
0.205735316194
0.205755454272
0.205779688028
0.205808094685
0.205840616316
0.20587704066
0.20591700821
0.205960390949
0.206009115579
0.206095017673
0.206205902456
0.206323266187
0.206439140844
0.20654705578
0.206631320245
0.206636762042
0.206369094276
0.205203260358
0.201347564837
0.190578573916
0.168117041429
0.136145660225
0.136055474985
0.16763529829
0.189913146483
0.200377536068
0.204085168624
0.205241864251
0.205570100337
0.205656038778
0.205676456794
0.205680438241
0.205680970614
0.205681592989
0.205683507273
0.205687369977
0.205693718427
0.205703063212
0.205715897767
0.205732685035
0.205753835496
0.205779680656
0.205810444011
0.205846210443
0.205886893962
0.205932251787
0.205982998592
0.206057957199
0.206182290245
0.206323366956
0.206468458529
0.206612569575
0.206752524417
0.206883219218
0.206989053329
0.207014196344
0.206762378768
0.205603690462
0.201736486585
0.190924503883
0.168374105592
0.136167341755
0.136053141105
0.167639696858
0.189913228256
0.200373637705
0.204079386072
0.205235584464
0.205563958538
0.205650323179
0.2056713518
0.205676133898
0.205677701685
0.205679654095
0.205683260768
0.205689251822
0.20569824292
0.205710826191
0.205727577178
0.205749037966
0.205775690564
0.205807924467
0.205845999285
0.205890000758
0.205939853339
0.205997185569
0.206100516528
0.20625245006
0.206419340587
0.206591161363
0.206764028114
0.206935266472
0.20710180519
0.207258147949
0.207388229479
0.207435411841
0.207201276941
0.206050606926
0.202170797517
0.191310988647
0.168659670473
0.136191123097
0.136050807245
0.167644158859
0.189913447491
0.200369934884
0.204073844081
0.205229586792
0.205558145187
0.205644992609
0.20566670283
0.205672374991
0.205675090521
0.205678513495
0.205683987445
0.205692323164
0.205704222718
0.205720368536
0.205741427597
0.205768030592
0.205800739836
0.205840008698
0.205886129934
0.205939230212
0.206001419972
0.206123003455
0.206295955947
0.206485779197
0.206683362107
0.206885238491
0.207088488193
0.207289942599
0.207485944414
0.207670526728
0.207827174163
0.207898436363
0.207683631042
0.206541836333
0.202648551697
0.191736273736
0.168971354887
0.136216676869
0.136048492713
0.167648636046
0.189913783081
0.200366434981
0.204068563145
0.205223894035
0.205552680156
0.205640061331
0.205662516559
0.205669158497
0.205673121844
0.205678140534
0.20568563754
0.205696510799
0.20571155612
0.205731554368
0.205757272665
0.205789439052
0.205828703391
0.20587558373
0.205930432281
0.205995243739
0.206120550854
0.206308473249
0.206517757368
0.206738831537
0.206968365182
0.207203185606
0.207439651831
0.207673900274
0.20790171415
0.208116683684
0.208301854045
0.20839894663
0.208204917251
0.207072829286
0.203165588476
0.192197732197
0.169310124919
0.136244141729
0.136046216766
0.167653075051
0.189914201947
0.200363125269
0.204063536351
0.205218496282
0.205547546833
0.205635503964
0.205658756771
0.205666434708
0.205671729033
0.205678447382
0.205688096782
0.20570166777
0.20572005616
0.205744148276
0.205774818894
0.205812900525
0.205859133947
0.205914110894
0.20597928499
0.206093505332
0.206288779799
0.206512899856
0.206753563829
0.207007473511
0.207271463323
0.207541566994
0.207813385894
0.208082404355
0.208343859195
0.208590894397
0.208806106509
0.208930362425
0.208758161441
0.2076362618
0.203714263374
0.19268729252
0.169667485885
0.13627275911
0.136043997194
0.16765741363
0.189914633706
0.200359917529
0.204058649425
0.205213256469
0.205542590695
0.205631151032
0.205655238622
0.205664000919
0.20567068751
0.205679182264
0.205691079548
0.205707466551
0.205729343857
0.205757708661
0.205793549054
0.205837806087
0.205891311626
0.20595505158
0.206047654649
0.206238461524
0.206471344607
0.206726250155
0.206999435974
0.207288091099
0.207588270824
0.207895235065
0.208203876583
0.208509033356
0.208805381331
0.209085598447
0.20933181035
0.209483993041
0.209334104448
0.208222384172
0.204284680977
0.193195825824
0.170036980798
0.136301975924
0.136041847408
0.167661555241
0.18991484626
0.200356392384
0.204053323262
0.20520749587
0.205537078592
0.205626237241
0.205651172053
0.205661042137
0.20566915344
0.205679466306
0.205693663868
0.205712932186
0.205738379436
0.20577111699
0.205812249233
0.205862825273
0.205923800515
0.205998426286
0.206161778451
0.20639525381
0.206657983675
0.206943928789
0.207250879371
0.207575351761
0.207912653931
0.208257333828
0.208603586884
0.208945593022
0.209277448984
0.20959134775
0.209868928936
0.210049267971
0.209921776556
0.208820143704
0.204866328677
0.193714312227
0.170412592596
0.136331334866
0.136039768012
0.167665229424
0.189913852349
0.200350654919
0.204044971957
0.205198242595
0.205527855999
0.205617521874
0.205643265813
0.205654225171
0.205663749306
0.205675870388
0.205692358788
0.20571449921
0.205743507777
0.205780610628
0.205827027826
0.205883919208
0.205952980036
0.206066457853
0.206286739932
0.206549936774
0.20684129852
0.207158820618
0.207499929862
0.207860453685
0.208235034913
0.208617536457
0.209001455102
0.209380303552
0.209747587542
0.210095004123
0.210403706454
0.210611905089
0.210506581025
0.209415093874
0.205445743148
0.194231422742
0.170786776698
0.13636026598
0.136037710691
0.167667279717
0.189907197119
0.200334450921
0.204022683011
0.205173207535
0.205502034768
0.205591865686
0.205618255391
0.205630195132
0.205641031554
0.205654851773
0.205673506258
0.205698374332
0.205730777012
0.205772052083
0.205823529884
0.205886500864
0.205964704908
0.206140873345
0.206394721802
0.206683851676
0.207003499306
0.207352255096
0.207726959598
0.208122852882
0.208533965601
0.208953491539
0.209374231801
0.209789034869
0.210190816359
0.210570783264
0.210909645671
0.211144917985
0.21106161687
0.209981706468
0.20600097315
0.194731236274
0.171151057243
0.13638819158
0.13603540492
0.167662125349
0.189875121156
0.200273488065
0.203942874542
0.205084346843
0.205409762996
0.205498715717
0.20552526619
0.2055378586
0.205549697276
0.205564876344
0.205585307012
0.205612452021
0.205647728471
0.20569257662
0.205748429966
0.20581707869
0.205922661371
0.206147715744
0.206425981795
0.206739016566
0.207085525285
0.207463779968
0.207870118271
0.20829928005
0.208744732981
0.209199024367
0.209654280609
0.21010271541
0.210536682803
0.210946953359
0.211313972637
0.211575129869
0.211515007474
0.210453302426
0.206477425947
0.19517895567
0.171492271647
0.136414355724
0.13603144725
0.167623012155
0.189734300287
0.200034173414
0.203643068422
0.204756459895
0.20507106652
0.205156372715
0.205181845343
0.205194252873
0.205206289204
0.20522193668
0.205243121703
0.205271364475
0.205308156868
0.205355020568
0.205413484164
0.205486524188
0.205634133749
0.205886761798
0.206183466287
0.206516652538
0.206885902177
0.207289064476
0.207722097855
0.208179340417
0.208653777911
0.20913735994
0.209621608838
0.210098194287
0.210559003835
0.210994547326
0.21138552477
0.211670815389
0.211638948288
0.210616897341
0.206698062617
0.195460971589
0.171771400557
0.136436672812
0.136018772056
0.167427346161
0.189158499872
0.199138792737
0.2025694541
0.203605766325
0.203891998589
0.203967536182
0.203989305248
0.20399974046
0.204010218441
0.20402436338
0.204044023491
0.204070720743
0.204105973841
0.204151339142
0.204208408887
0.204282084349
0.204467842821
0.204733371058
0.205039665084
0.205384103138
0.205766258074
0.206183618647
0.206631925798
0.207105298897
0.207596415494
0.208096737509
0.208597382668
0.209089700078
0.20956534298
0.210014973617
0.210420720514
0.210726661584
0.210735939535
0.209808299909
0.206088206335
0.195181283351
0.171837300971
0.136446257909
0.13596395207
0.166558711395
0.187001943271
0.196071175429
0.19905213349
0.199911509904
0.200137299566
0.200192924966
0.200206863381
0.200212456037
0.200218444375
0.200227711447
0.20024187334
0.200262348926
0.20029058612
0.200328080432
0.200376491558
0.200448107886
0.200642665259
0.200902468891
0.201201125385
0.201537930811
0.201912268642
0.202321371255
0.202761009111
0.203225496706
0.203707531642
0.204198322132
0.204689082123
0.205171300087
0.205636853405
0.206077276246
0.206478060281
0.206794915463
0.206866042439
0.20613961032
0.202930292831
0.193033898192
0.17109210923
0.136404224543
0.135738246802
0.163184977452
0.179913362121
0.186853466776
0.188934733204
0.189481890277
0.189612027382
0.189639123265
0.189642642161
0.189641780937
0.189641461255
0.189643485011
0.189649053489
0.189659316465
0.189675477569
0.189698792355
0.18973073069
0.189784693009
0.189955449187
0.190184661275
0.19044914397
0.190748423947
0.191081774465
0.191446342965
0.191838064526
0.192252483443
0.192682750635
0.193120320664
0.193557478711
0.19398661623
0.194400570078
0.194792613527
0.19515348513
0.195457319373
0.195603307523
0.19521492174
0.193016451777
0.185473769262
0.167595640546
0.136172516399
0.135134447622
0.154633729554
0.16309904762
0.166379247374
0.167211584967
0.167398522778
0.16743783355
0.167445974417
0.167448193826
0.167450007817
0.167452887956
0.16745753986
0.167464556876
0.167474548187
0.167488156953
0.167506050286
0.167528944441
0.16755974445
0.167661963885
0.167834433601
0.168034777
0.168260507531
0.168510828405
0.168783315184
0.169073734544
0.169381042416
0.169699054588
0.170020790105
0.170341182553
0.170654819363
0.17095670865
0.171242731533
0.171509158468
0.171748855761
0.171930779431
0.171915404939
0.171124828201
0.167630855137
0.158666436013
0.13553161927
0.136207096683
0.135235549756
0.135814577756
0.136025448198
0.136074322031
0.136084317207
0.136086531602
0.136087364354
0.136088042225
0.136088809993
0.136089734846
0.136090852765
0.136092194302
0.136093788228
0.136095661029
0.136097835275
0.136100329565
0.136103211068
0.136107445064
0.13611846629
0.136135523415
0.136154689659
0.136175716405
0.136198377832
0.136222181455
0.136247117703
0.136272660547
0.136298187424
0.136323321317
0.136347651086
0.136370813193
0.136392536259
0.136412630342
0.136430810107
0.136445587134
0.136448944765
0.1364034474
0.136171855556
0.13552931066
0.13625250602
0.137538717013
0.147864791714
0.152718811749
0.154198910368
0.15457003665
0.154655268803
0.154676106533
0.15468402428
0.15468990346
0.154695938109
0.154702535634
0.154709764484
0.154717625365
0.154726104607
0.154735181914
0.154744831174
0.154755019923
0.154765708781
0.15477685094
0.154788392741
0.154800268045
0.154812409343
0.154824742548
0.154837178145
0.154849631167
0.15486200856
0.154874215674
0.154886158611
0.154897747708
0.154908900701
0.154919540386
0.154929547777
0.15493848664
0.154944110301
0.154935177654
0.15485865325
0.154487530848
0.152984953569
0.14805886278
0.137556095504
0.147855263326
0.132833066133
0.133858912608
0.134401220636
0.134554631099
0.134592213629
0.134601048377
0.134603365768
0.134604357408
0.134605154229
0.134605988649
0.134606899706
0.134607888934
0.13460895111
0.134610080357
0.134611270867
0.134612516802
0.134613812063
0.134615150146
0.134616524012
0.134617926121
0.134619349117
0.134620783787
0.134622221131
0.134623651692
0.134625066026
0.134626454776
0.134627809157
0.134629121371
0.134630384356
0.13463158644
0.134632680424
0.134633426875
0.134632669505
0.134625137858
0.134588268772
0.13443427041
0.133889157667
0.132865107181
0.147783298451
0.152704983186
0.13385843355
0.133228379512
0.133135808658
0.133076716703
0.133053280757
0.133047026852
0.1330461507
0.133046697835
0.133047657435
0.13304881081
0.133050102451
0.133051510096
0.133053018291
0.133054614238
0.133056286396
0.133058023853
0.13305981592
0.133061651919
0.133063521042
0.133065412431
0.133067314963
0.133069217036
0.133071107331
0.133072974424
0.13307480731
0.133076595592
0.13307833007
0.133080003519
0.133081612309
0.133083161323
0.133084691223
0.133086416762
0.133089356453
0.133097513958
0.133122513014
0.133181997082
0.133270856319
0.133894507541
0.152578830839
0.154183664045
0.134400616857
0.133135851674
0.132689186486
0.132467930472
0.132383381234
0.13235791816
0.132351941664
0.13235144778
0.132352422086
0.132353865285
0.132355535209
0.132357365229
0.132359327028
0.132361401914
0.132363574113
0.132365828969
0.132368152217
0.13237052966
0.13237294699
0.132375389758
0.132377843286
0.132380292602
0.132382722982
0.132385119716
0.132387468537
0.132389755934
0.132391969899
0.132394101635
0.132396152057
0.132398161071
0.13240034643
0.13240369923
0.13241224692
0.132440049325
0.132526365392
0.132747390564
0.133187392371
0.134438151582
0.154034107251
0.154554477804
0.134554003465
0.133076840669
0.132468033204
0.132155778749
0.132031217767
0.1319914155
0.131981114655
0.131979546527
0.131980376541
0.131981927541
0.131983778966
0.131985819288
0.131988007906
0.131990321541
0.131992741722
0.131995251618
0.13199783497
0.132000475654
0.132003157465
0.132005864064
0.132008578948
0.132011285503
0.132013967224
0.13201660777
0.132019191261
0.132021702673
0.132024128761
0.132026460897
0.132028707095
0.132030946173
0.132033568355
0.132038240088
0.132051309104
0.132093584389
0.132219843485
0.132531244374
0.133131655024
0.134591716994
0.154395507805
0.154639722975
0.134591598663
0.13305347034
0.13238356446
0.132031300005
0.1318871441
0.131839669157
0.131826849541
0.131824579936
0.131825265926
0.131826831053
0.131828741475
0.131830855001
0.131833122111
0.131835516165
0.131838016815
0.131840605849
0.131843265842
0.131845979638
0.131848730117
0.131851500135
0.131854272523
0.131857030152
0.131859756083
0.131862433686
0.131865046902
0.131867580673
0.131870022026
0.131872363777
0.131874620504
0.131876899119
0.131879701413
0.131885095337
0.131900695438
0.131950652098
0.132096463111
0.132447674799
0.133108743912
0.134629372256
0.154475043066
0.154660633889
0.134600468794
0.133047297169
0.132358196734
0.131991595113
0.131839765986
0.13178906622
0.131775116276
0.131772508132
0.131773114401
0.131774677561
0.131776608371
0.131778748051
0.131781041461
0.131783459419
0.131785979994
0.131788583777
0.131791252367
0.131793967803
0.131796712331
0.131799468348
0.13180221842
0.131804945355
0.131807632329
0.131810263035
0.13181282192
0.131815294643
0.131817669256
0.131819940426
0.131822127535
0.131824353516
0.131827176406
0.131832850804
0.131849537843
0.131902715398
0.132056246892
0.132421905258
0.133102376515
0.134638656578
0.154490354652
0.154668637795
0.134602834803
0.133046523311
0.132352342402
0.131981420495
0.131827072056
0.131775241185
0.131760871721
0.131758133833
0.131758712586
0.131760281562
0.13176222802
0.131764384793
0.131766693034
0.131769121369
0.131771646261
0.131774246999
0.131776904101
0.131779598725
0.131782312452
0.131785027242
0.131787725475
0.131790390045
0.131793004477
0.131795553088
0.131798021219
0.131800395688
0.131802666033
0.131804828975
0.131806907495
0.131809033208
0.131811789492
0.131817506696
0.131834550139
0.131888854697
0.132044998793
0.132415222116
0.133101231284
0.134641649552
0.154491935563
0.154674623766
0.134603886386
0.133047195981
0.132352001408
0.131980012491
0.131824962606
0.131772791812
0.131758291619
0.131755518868
0.131756101172
0.131757688019
0.131759656536
0.131761834688
0.131764160655
0.131766600864
0.131769129968
0.131771725701
0.131774367255
0.131777034693
0.131779708761
0.131782370876
0.13178500319
0.131787588723
0.131790111491
0.131792556654
0.131794910745
0.131797162112
0.13179930216
0.131801329906
0.131803271447
0.131805263756
0.131807902187
0.131813547948
0.131830641038
0.131885269365
0.132042213227
0.132413791084
0.13310137935