/*--------------------------------*- C++ -*----------------------------------*\
| =========                 |                                                 |
| \\      /  F ield         | foam-extend: Open Source CFD                    |
|  \\    /   O peration     | Version:     4.1                                |
|   \\  /    A nd           | Web:         http://www.foam-extend.org         |
|    \\/     M anipulation  |                                                 |
\*---------------------------------------------------------------------------*/
FoamFile
{
    version     2.0;
    format      ascii;
    class       volScalarField;
    location    "0.2";
    object      k;
}
// * * * * * * * * * * * * * * * * * * * * * * * * * * * * * * * * * * * * * //

dimensions      [0 2 -2 0 0 0 0];

internalField   nonuniform List<scalar> 
96000
(
0.0250494398579
0.0249320654403
0.0250122703595
0.0250419746847
0.0250490410559
0.0250504649842
0.0250506907666
0.0250506678889
0.0250505850389
0.0250504790504
0.0250503576484
0.0250502227945
0.0250500752912
0.025049915689
0.0250497445205
0.0250495623736
0.0250493699245
0.0250491679571
0.0250489573807
0.0250487391954
0.0250485147063
0.0250482853505
0.0250480521426
0.0250478169405
0.0250475812532
0.0250473467987
0.0250471152899
0.0250468883905
0.025046667621
0.0250464541973
0.0250462486505
0.0250460496303
0.025045848574
0.0250456041887
0.0250451113436
0.0250433652543
0.0250357365566
0.0250048084631
0.0249227024345
0.0250490821532
0.0249325145457
0.0208459214313
0.0216657324086
0.0219860189651
0.0220699266742
0.0220895005538
0.0220938431111
0.022094852338
0.0220951728917
0.0220953642746
0.022095540857
0.0220957261612
0.0220959253145
0.02209613971
0.0220963698292
0.0220966157817
0.0220968773878
0.0220971541796
0.0220974453741
0.0220977498645
0.0220980661377
0.022098392355
0.0220987265138
0.0220990660815
0.0220994083899
0.0220997504829
0.0221000892436
0.0221004214305
0.0221007436497
0.0221010518409
0.0221013383194
0.0221015762607
0.0221016431113
0.0221009511099
0.0220967526345
0.0220768305033
0.0219912823033
0.0216673067948
0.0208475871431
0.0249347947576
0.0250126129637
0.0216653567187
0.0232306175862
0.0238800171172
0.0240798651181
0.0241342839323
0.024147887032
0.0241510710811
0.0241517641909
0.0241518849444
0.0241518728526
0.0241518261601
0.0241517674729
0.0241517031433
0.0241516359741
0.0241515678987
0.0241515005338
0.0241514352792
0.0241513733185
0.0241513156073
0.0241512628374
0.0241512154627
0.0241511737242
0.0241511375333
0.0241511065903
0.0241510803381
0.0241510579789
0.0241510383603
0.0241510194004
0.0241509952502
0.0241509428747
0.0241507598969
0.0241499885458
0.0241466459866
0.0241326035081
0.0240769665404
0.0238742078727
0.0232202642369
0.0216588282133
0.0250135931368
0.0250422649807
0.0219854226944
0.0238797188622
0.0247161282684
0.0249972120148
0.0250806966536
0.0251032559699
0.0251088466448
0.0251100447671
0.0251101539616
0.0251099877738
0.0251097389822
0.0251094534514
0.0251091437172
0.0251088148923
0.025108470429
0.0251081133753
0.0251077466398
0.0251073730348
0.0251069952713
0.0251066159366
0.0251062374844
0.0251058622278
0.0251054922823
0.0251051295893
0.0251047758768
0.0251044325977
0.0251041006308
0.0251037789547
0.0251034586043
0.0251030955917
0.0251024930756
0.0251008129533
0.0250946668547
0.025071237204
0.0249860486783
0.0247016871117
0.0238612953047
0.0219743350641
0.0250426036681
0.0250493140612
0.0220692462484
0.0240794254389
0.0249970530368
0.0253192303022
0.0254193316635
0.02544757329
0.0254548487752
0.0254564560115
0.0254566012193
0.0254563644709
0.0254560111802
0.025455606135
0.0254551669522
0.0254547004584
0.0254542110581
0.0254537026165
0.0254531788754
0.0254526435343
0.0254521002521
0.0254515526256
0.0254510041675
0.025450458283
0.0254499182368
0.0254493871374
0.0254488678945
0.0254483631098
0.0254478746263
0.0254474015638
0.0254469316
0.0254464031338
0.0254455466965
0.0254432542127
0.0254352250798
0.0254059067884
0.0253039055193
0.0249784111434
0.024057356877
0.0220564489657
0.0250494844984
0.0250507317611
0.0220887903171
0.0241337839405
0.0250804635794
0.0254192540937
0.0255267444958
0.0255577232177
0.0255658726968
0.0255677133758
0.02556789294
0.0255676314863
0.0255672350984
0.0255667798009
0.0255662863847
0.0255657627609
0.0255652139025
0.0255646441234
0.0255640575932
0.0255634584447
0.0255628507772
0.025562238634
0.0255616259743
0.0255610166448
0.0255604143491
0.0255598226231
0.0255592447883
0.0255586838175
0.0255581417909
0.0255576175291
0.0255570962591
0.0255565056029
0.0255555350202
0.0255529337119
0.0255439526701
0.0255118059519
0.0254023117177
0.0250601414851
0.0241102044932
0.0220753468434
0.0250509149711
0.0250509541543
0.0220931175939
0.0241473531963
0.0251029794136
0.0254474489332
0.0255576757354
0.0255897373107
0.0255982531376
0.0256001972601
0.025600393834
0.0256001226174
0.0255997081382
0.0255992319017
0.0255987164188
0.0255981702813
0.0255975988596
0.0255970067796
0.0255963984936
0.0255957783956
0.0255951508255
0.0255945200416
0.0255938901886
0.0255932652641
0.0255926490895
0.02559204528
0.0255914571978
0.0255908878082
0.0255903390868
0.0255898094487
0.0255892826176
0.0255886807218
0.0255876739969
0.0255849490235
0.0255755725017
0.025542288468
0.0254299557396
0.0250819487769
0.0241229502975
0.0220792822741
0.025051219468
0.0250509283857
0.0220941139272
0.0241505083916
0.0251085326174
0.0254546836824
0.0255657836358
0.0255982114508
0.0256068562208
0.0256088362446
0.0256090361664
0.0256087576349
0.0256083325102
0.0256078447594
0.0256073178487
0.025606760873
0.0256061795612
0.0256055788412
0.0256049634333
0.0256043379656
0.0256037069731
0.0256030748654
0.0256024458884
0.0256018240839
0.0256012132607
0.0256006169617
0.0256000384187
0.0255994804068
0.0255989446322
0.0255984290721
0.0255979164941
0.025597326327
0.025596320446
0.025593560128
0.0255840422171
0.0255503444958
0.0254370178914
0.0250870958006
0.0241254300214
0.0220799138792
0.0250513133451
0.025050842287
0.0220944213657
0.0241511712108
0.0251096908411
0.0254562472045
0.0255675795796
0.0256001107554
0.0256087915247
0.0256107784673
0.0256109741138
0.0256106873117
0.0256102527255
0.0256097555244
0.0256092198325
0.0256086552126
0.0256080677849
0.0256074628284
0.0256068453741
0.0256062203166
0.0256055924066
0.0256049662066
0.0256043460472
0.025603735976
0.0256031397247
0.0256025606794
0.0256020018367
0.0256014656612
0.0256009534716
0.0256004627472
0.0255999754976
0.0255994096031
0.0255984229455
0.0255956657517
0.0255861061217
0.0255522569339
0.0254385580575
0.025087941458
0.0241254186615
0.022079843355
0.0250513766705
0.0250507321786
0.0220945998032
0.0241512594461
0.0251097560753
0.0254563437657
0.0255677092438
0.0256002574174
0.0256089418201
0.0256109247092
0.0256111126207
0.0256108166009
0.025610372544
0.0256098664043
0.0256093229037
0.025608752117
0.0256081606306
0.0256075541484
0.0256069380807
0.0256063176481
0.025605697859
0.0256050834529
0.0256044788393
0.0256038880467
0.0256033146786
0.0256027618834
0.0256022323147
0.0256017279991
0.0256012497316
0.0256007943764
0.02560034317
0.0255998127788
0.0255988585198
0.0255961241093
0.0255865612642
0.0255526461629
0.0254387568744
0.0250877710998
0.0241248332148
0.0220796453945
0.0250514457529
0.0250506053628
0.0220947646796
0.0241512133131
0.0251095421977
0.0254560536283
0.0255673929134
0.0255999314417
0.0256086090907
0.0256105842631
0.0256107633101
0.0256104579551
0.0256100048721
0.0256094907296
0.0256089408995
0.0256083660608
0.0256077733631
0.0256071690317
0.0256065589442
0.025605948721
0.0256053436783
0.0256047487599
0.0256041684595
0.025603606751
0.025603067041
0.0256025521383
0.0256020642176
0.0256016047053
0.0256011736931
0.0256007672507
0.025600365696
0.0255998844525
0.0255989765416
0.0255962801522
0.0255867331132
0.0255527797203
0.0254387425384
0.02508744566
0.0241241572907
0.0220794649387
0.0250515301655
0.0250504633979
0.0220949407249
0.0241511320949
0.0251092427771
0.0254556429087
0.0255669374007
0.0255994581659
0.025608126119
0.0256100928521
0.0256102632954
0.0256099494529
0.0256094887218
0.0256089685553
0.0256084150861
0.0256078397178
0.0256072502881
0.0256066536629
0.025606056293
0.0256054642819
0.025604883322
0.0256043185938
0.0256037746704
0.0256032554251
0.0256027639757
0.0256023026525
0.0256018729768
0.0256014755622
0.0256011095587
0.0256007699934
0.0256004360271
0.0256000216286
0.0255991773422
0.0255965355803
0.0255870195809
0.0255530394509
0.0254388563777
0.0250872300199
0.0241235508774
0.02207936253
0.0250516347566
0.0250503066898
0.0220951342763
0.0241510394701
0.025108904517
0.0254551771531
0.0255664195273
0.0255989199958
0.0256075779156
0.0256095368656
0.0256096999598
0.0256093794342
0.0256089134985
0.0256083905216
0.0256078375441
0.02560726685
0.0256066871184
0.0256061059944
0.0256055306332
0.0256049677334
0.0256044234398
0.0256039032082
0.025603411675
0.0256029525533
0.0256025285557
0.0256021413609
0.025601791606
0.0256014788164
0.0256012008922
0.0256009514892
0.025600708282
0.0256003834542
0.0255996246833
0.0255970578888
0.0255875899115
0.0255535919803
0.0254392539716
0.0250872560172
0.0241231093171
0.0220793857047
0.025051763707
0.0250501353948
0.0220953479384
0.0241509428767
0.0251085408057
0.0254546747533
0.0255658609097
0.0255983403943
0.0256069890759
0.0256089417751
0.0256090996358
0.0256087751981
0.0256083076301
0.0256077863884
0.0256072396081
0.0256066806414
0.0256061191878
0.0256055638542
0.0256050226603
0.0256045030335
0.0256040116593
0.0256035543141
0.0256031356915
0.0256027592647
0.0256024271925
0.0256021402804
0.0256018979902
0.0256016984097
0.0256015377944
0.0256014080088
0.0256012848131
0.0256010781697
0.0256004323612
0.0255979658613
0.0255885667936
0.0255545616916
0.0254400570083
0.0250876350487
0.024122922722
0.022079584213
0.0250519212228
0.025049949656
0.022095583411
0.0241508462354
0.0251081576529
0.0254541433645
0.0255652703562
0.0255977290018
0.0256063699524
0.0256083186673
0.0256084742507
0.0256081496667
0.025607685228
0.0256071716919
0.0256066385093
0.0256061003215
0.0256055680803
0.025605051571
0.0256045598725
0.0256041012964
0.0256036831942
0.0256033117213
0.025602991617
0.0256027260182
0.0256025163471
0.0256023622603
0.0256022616828
0.0256022108265
0.0256022038046
0.0256022301653
0.0256022632156
0.0256022101473
0.0256017111971
0.0255993762606
0.0255900720573
0.0255560737592
0.0254413904169
0.0250884848273
0.0241230896084
0.0220800134497
0.0250521115909
0.0250497496796
0.0220958420269
0.0241507526404
0.0251077594777
0.0254535883095
0.0255646538435
0.0255970923691
0.0256057277043
0.0256076754101
0.0256078325256
0.0256075125961
0.0256070573046
0.0256065589586
0.0256060485831
0.0256055423871
0.0256050528482
0.0256045911866
0.0256041677773
0.0256037920251
0.0256034720925
0.0256032145931
0.0256030243019
0.0256029039079
0.0256028538666
0.0256028723527
0.0256029553128
0.0256030965443
0.0256032874086
0.0256035144794
0.0256037479423
0.0256038915416
0.0256035806875
0.0256014153981
0.0255922379725
0.0255582647241
0.0254433913924
0.0250899358199
0.0241237202294
0.0220807352415
0.0250523390682
0.0250495357828
0.0220961248148
0.0241506648992
0.0251073503635
0.025453014467
0.02556401681
0.0255964364538
0.0256050688748
0.0256070192576
0.0256071825887
0.0256068731905
0.025606434377
0.0256059602935
0.0256054838576
0.0256050231708
0.025604592552
0.0256042049773
0.0256038724115
0.0256036056012
0.0256034137081
0.0256033039047
0.0256032809855
0.025603347068
0.025603501385
0.025603740224
0.0256040570131
0.0256044424785
0.0256048844823
0.0256053658224
0.0256058527458
0.0256062447285
0.0256061714317
0.0256042215197
0.0255952095094
0.0255612845075
0.0254462109839
0.0250921322649
0.0241249369948
0.022081817684
0.0250526076988
0.0250493084259
0.0220964324604
0.0241505856043
0.0251069343078
0.0254524266802
0.0255633646627
0.0255957671743
0.0256043999639
0.0256063574234
0.0256065325426
0.0256062406508
0.0256058269911
0.0256053878918
0.0256049585287
0.0256045592645
0.0256042066549
0.025603915808
0.0256037006336
0.025603573527
0.0256035448738
0.02560362253
0.025603811328
0.0256041126683
0.0256045242523
0.0256050400025
0.0256056501856
0.025606341667
0.0256070979072
0.0256078969594
0.0256087001441
0.0256094016838
0.0256096244092
0.0256079439642
0.0255991433659
0.0255652952849
0.0254500128227
0.0250952308166
0.0241268732705
0.0220833342593
0.0250529210736
0.0250490682322
0.022096765244
0.0241505171028
0.0251065152392
0.0254518298118
0.0255627028535
0.0255950904931
0.0256037275055
0.025605697147
0.0256058905071
0.0256056241875
0.0256052457113
0.0256048539797
0.0256044868376
0.0256041673589
0.0256039147869
0.025603746814
0.0256036797193
0.0256037279023
0.0256039032624
0.0256042145151
0.0256046665487
0.0256052598913
0.0256059903607
0.0256068489573
0.0256078220267
0.0256088916356
0.0256100357643
0.0256112265572
0.025612419217
0.025613501527
0.0256140882194
0.0256127400508
0.0256042044427
0.0255704676496
0.0254549694798
0.025099397567
0.0241296713069
0.0220853622907
0.0250532820576
0.0250488160226
0.0220971229594
0.0241504614224
0.025106096968
0.025451228709
0.0255620368464
0.0255944123754
0.0256030580134
0.0256050456146
0.0256052645083
0.0256050328817
0.0256047009283
0.0256043705571
0.0256040827626
0.0256038638392
0.025603736246
0.025603720787
0.0256038365933
0.0256041005212
0.0256045263315
0.0256051238123
0.0256058979497
0.0256068482366
0.0256079682121
0.0256092453102
0.0256106610679
0.0256121916406
0.0256138082315
0.0256154756522
0.0256171415335
0.0256186857727
0.0256197140551
0.0256187709679
0.0256105638867
0.0255769909381
0.0254613040659
0.0251048771413
0.0241335513138
0.0220879956452
0.0250536931798
0.0250485527594
0.0220975048749
0.0241504202164
0.0251056831337
0.0254506281436
0.0255613720477
0.0255937387061
0.025602397873
0.0256044098206
0.0256046623099
0.0256044754635
0.0256042025768
0.0256039490518
0.0256037595754
0.0256036642384
0.0256036893199
0.0256038593269
0.0256041968321
0.0256047216669
0.0256054498681
0.0256063925631
0.0256075549081
0.025608935194
0.0256105242387
0.0256123051688
0.0256142536572
0.0256163385773
0.025618522721
0.0256207618972
0.0256229958969
0.0256250969815
0.0256266919363
0.0256263247165
0.0256186469593
0.0255860027541
0.0254714563905
0.0251149903811
0.0241416565671
0.0220919703876
0.0250541721495
0.0250482800751
0.0220979095086
0.0241503946512
0.0251052771256
0.0254500327437
0.0255607137263
0.0255930751867
0.025601753214
0.0256037964125
0.0256040912121
0.0256039600573
0.0256037598093
0.0256035999074
0.025603529323
0.0256035825879
0.025603790469
0.0256041818615
0.0256047834462
0.025605618627
0.0256067062059
0.0256080589758
0.0256096823681
0.0256115733004
0.0256137193627
0.0256160984659
0.0256186790308
0.0256214208829
0.0256242783964
0.0256272099753
0.025630212853
0.0256332116093
0.0256372315717
0.0256403253035
0.0256364462793
0.0256068186421
0.0254938357949
0.0251371063308
0.0241611888972
0.0221053460185
0.0250549430003
0.0250479992948
0.0220983349597
0.0241503854805
0.0251048820537
0.0254494469209
0.0255600669223
0.0255924272274
0.0256011297761
0.0256032115168
0.0256035578295
0.0256034938924
0.0256033806405
0.0256033321267
0.0256034022509
0.0256036306886
0.0256040534251
0.0256047045143
0.0256056154829
0.0256068139864
0.0256083221562
0.0256101548357
0.0256123178663
0.0256148065845
0.0256176046652
0.0256206834518
0.0256240030339
0.0256275239644
0.0256312914722
0.0256359398736
0.0256431738589
0.0256513944157
0.0256593280177
0.0256651227014
0.0256632071108
0.0256349484448
0.0255225367185
0.0251649787793
0.0241861675401
0.0221245572487
0.0250570541146
0.0250477117572
0.0220987787337
0.02415039293
0.0251045006726
0.0254488747955
0.0255594363598
0.0255917998378
0.0256005327709
0.0256026605635
0.0256030678663
0.0256030830256
0.0256030715813
0.0256031528067
0.0256033862111
0.0256038173499
0.0256044882376
0.0256054389044
0.0256067065334
0.0256083237836
0.0256103167475
0.0256127027511
0.0256154881634
0.0256186663258
0.0256222157417
0.0256261024174
0.0256303414723
0.0256354785989
0.0256443500938
0.0256550171954
0.0256661127182
0.0256769976464
0.0256870579182
0.0256946935124
0.0256943904104
0.0256673920009
0.0255555166997
0.0251970384942
0.0242150262145
0.0221468386207
0.0250597869648
0.0250474199072
0.022099237349
0.0241504165447
0.0251041352827
0.0254483201123
0.025558826352
0.0255911975143
0.0255999667447
0.025602148115
0.0256026258971
0.0256027320592
0.0256028372804
0.0256030666746
0.0256034860629
0.0256041476512
0.0256051003204
0.0256063909437
0.0256080632229
0.0256101556283
0.0256126988895
0.0256157132368
0.0256192054579
0.0256231658262
0.0256275723516
0.0256325441691
0.0256406231911
0.0256527008885
0.02566603535
0.0256796597092
0.0256931663101
0.0257062598026
0.0257184188805
0.0257280401042
0.0257295426364
0.0257039830843
0.0255927540364
0.0252333171261
0.0242477833686
0.0221720450119
0.0250628564286
0.0250471257045
0.022099706935
0.0241504553441
0.0251037877258
0.0254477861723
0.0255582407067
0.0255906241238
0.0255994354351
0.0256016776913
0.025602235158
0.0256024438761
0.0256026801917
0.0256030756717
0.0256037031445
0.0256046222497
0.0256058895765
0.0256075597255
0.0256096838059
0.0256123069282
0.0256154651173
0.0256191817055
0.0256234631068
0.0256283049932
0.0256339463304
0.0256448036382
0.025659302319
0.0256749849487
0.0256910761897
0.0257072473545
0.0257232508472
0.0257387893732
0.0257533045738
0.0257651489023
0.0257686629508
0.0257447017227
0.0256341930804
0.0252737051652
0.0242842520943
0.022199933425
0.0250662086504
0.0250468315015
0.022100182936
0.0241505076977
0.0251034592607
0.025447275678
0.0255576825426
0.0255900826967
0.0255989415435
0.0256012515168
0.0256018972604
0.0256022193161
0.025602600197
0.0256031785049
0.0256040347399
0.0256052367317
0.0256068495961
0.0256089365283
0.0256115569167
0.0256147633013
0.0256185974577
0.0256230853735
0.0256282414375
0.0256344714247
0.0256469631077
0.0256633696234
0.0256811655477
0.0256996429477
0.0257184986722
0.0257374619695
0.0257562375723
0.0257744757326
0.0257915756912
0.0258058472663
0.0258115519559
0.0257893333446
0.0256796226499
0.0253180239481
0.0243242950508
0.0222303299879
0.0250698064657
0.0250465397114
0.0221006602759
0.0241505712508
0.0251031502664
0.0254467902699
0.0255571537201
0.0255895747982
0.025598486072
0.0256008698351
0.0256016114836
0.0256020564468
0.0256025938502
0.0256033698533
0.0256044732348
0.0256059807013
0.0256079666528
0.0256105036849
0.0256136602614
0.0256174969604
0.0256220612245
0.0256273863814
0.0256337257338
0.0256467170898
0.0256645287373
0.0256841324678
0.0257047896924
0.0257262055829
0.0257480845905
0.0257700899685
0.0257918643344
0.0258130079944
0.0258328802547
0.0258497493293
0.0258577962768
0.025837445136
0.0257286062084
0.0253658690779
0.0243676418407
0.0222633008813
0.0250736668498
0.0250462527278
0.0221011333305
0.0241506423425
0.0251028589014
0.0254463285376
0.0255566524467
0.0255890979225
0.0255980656187
0.0256005281583
0.0256013720027
0.0256019477784
0.0256026515851
0.0256036375716
0.0256050033057
0.0256068349544
0.0256092168535
0.025612231688
0.0256159576201
0.025620463464
0.0256258043804
0.0256321671256
0.0256440926007
0.0256626719172
0.0256836673335
0.0257061476009
0.0257298242158
0.025754400103
0.0257795074328
0.0258047413178
0.0258296858684
0.0258538926124
0.0258766807229
0.0258962760431
0.0259067767586
0.0258883790218
0.0257804482368
0.0254165038503
0.0244134916408
0.0222979724443
0.0250776776256
0.0250459727308
0.0221015954662
0.0241507131702
0.0251025750134
0.0254458772296
0.025556162853
0.025588634262
0.0255976607877
0.0256002055191
0.0256011560636
0.0256018683949
0.0256027458153
0.0256039507667
0.0256055899815
0.0256077595282
0.025610554176
0.0256140672051
0.0256183867815
0.0256235902534
0.0256297941448
0.0256395397253
0.0256579328734
0.0256797780372
0.0257035918192
0.025729063651
0.0257559269954
0.0257838134292
0.0258122850738
0.0258408729638
0.025869103195
0.02589647733
0.0259222727465
0.0259446709884
0.0259576841975
0.0259412737122
0.025834243863
0.0254690128133
0.0244609992482
0.0223337399459
0.02508176444
0.025045701267
0.0221020360965
0.0241507582434
0.0251022527909
0.0254453730456
0.0255556105487
0.0255881033206
0.0255971875371
0.0255998152469
0.0256008744362
0.0256017261596
0.0256027809093
0.0256042095373
0.0256061281388
0.0256086429391
0.025611859436
0.0256158817415
0.0256208079031
0.0256267307176
0.0256342104131
0.0256506576307
0.0256726449156
0.0256972057512
0.0257238767597
0.0257524475342
0.0257825886242
0.0258138636271
0.0258457697752
0.0258777749837
0.0259093463931
0.0259399341184
0.025968772245
0.0259939969689
0.0260095341548
0.0259951113752
0.0258889721461
0.0255224267235
0.0245093244527
0.022370025424
0.0250858646248
0.025045437985
0.0221024250134
0.0241506715736
0.0251016918378
0.0254445426571
0.0255546804651
0.0255871698415
0.0255963010097
0.0255990069539
0.02560017228
0.0256011616256
0.0256023921211
0.0256040428373
0.0256062391866
0.0256090975676
0.0256127342363
0.0256172640197
0.025622795675
0.0256295227987
0.0256413866305
0.0256623966951
0.0256870409745
0.0257142372991
0.0257438096364
0.0257755087012
0.0258089421781
0.025843612665
0.0258789548023
0.0259143733275
0.0259492757538
0.0259830598903
0.0260149158711
0.0260429352131
0.0260609623245
0.0260485045386
0.0259432689173
0.0255754819555
0.0245574014399
0.0224061034615
0.0250898996606
0.0250451751407
0.0221026348836
0.0241499880893
0.0251000449939
0.0254422674271
0.0255521096562
0.0255845064042
0.0255936462562
0.0255964119707
0.0255976712134
0.025598787045
0.0256001813242
0.0256020405451
0.0256044990026
0.0256076829461
0.0256117190517
0.0256167322958
0.0256228473518
0.0256306804178
0.0256483651189
0.0256722479891
0.0256992652215
0.0257290620681
0.0257614958065
0.0257962631453
0.0258329176965
0.0258709057241
0.025909600666
0.0259483444743
0.025986485527
0.0260233697357
0.026058144532
0.0260888625344
0.0261093061727
0.0260988125401
0.0259946459637
0.0256260546766
0.0246036931169
0.0224411497972
0.0250937899603
0.0250448716253
0.0221020681666
0.0241467060365
0.0250938989224
0.0254342177811
0.025543116565
0.0255751431502
0.025584178804
0.0255869514329
0.0255882693106
0.0255894787275
0.0255910009775
0.0255930278684
0.0255957014047
0.0255991567865
0.0256035301819
0.0256089564298
0.0256156311031
0.0256266982367
0.0256482710455
0.0256743282203
0.0257035372476
0.0257357909549
0.025770913512
0.0258085555299
0.0258482242943
0.0258893142973
0.0259311397378
0.0259729819565
0.0260141332471
0.026053890851
0.0260913660247
0.0261245930509
0.0261473543365
0.0261389736195
0.0260365758462
0.0256688054255
0.0246447618743
0.0224738331855
0.0250974277843
0.0250443201353
0.0220979501906
0.0241326451566
0.0250703717479
0.0254047698287
0.0255108370697
0.0255417374594
0.0255503792426
0.0255530283445
0.0255543178713
0.0255555384908
0.0255570981877
0.0255591892503
0.0255619587456
0.0255655487181
0.0255701027658
0.0255757650203
0.0255828660709
0.0255980646493
0.0256219150342
0.0256496321414
0.0256806730395
0.0257149868377
0.0257523581783
0.025792403135
0.0258345917169
0.0258782742365
0.0259227097565
0.0259671259816
0.0260107678883
0.0260528937615
0.0260925978104
0.0261279518724
0.0261529051864
0.0261472001698
0.0260487182259
0.0256867770503
0.0246695213173
0.0225001439148
0.0251005061382
0.0250425061769
0.0220779888802
0.024076792103
0.0249848583412
0.025302396153
0.0254009472866
0.0254289914137
0.0254366217636
0.0254388810846
0.0254399638626
0.0254410228944
0.0254424273613
0.0254443605211
0.0254469690719
0.0254503973727
0.0254547921517
0.02546030895
0.0254678081879
0.0254862462074
0.0255111656675
0.0255397436189
0.0255717980927
0.0256072703376
0.0256459112375
0.0256873182237
0.0257309406893
0.0257761003648
0.0258220099061
0.0258678621187
0.0259128748815
0.0259562895101
0.0259972249659
0.0260339104433
0.0260608289206
0.026059153766
0.0259698348726
0.0256267703835
0.0246405814876
0.0225049883126
0.0251017421872
0.0250347684101
0.0219921172664
0.0238734316265
0.0246997868526
0.0249761487573
0.0250579787531
0.0250801218896
0.0250857546197
0.0250872210555
0.0250878212322
0.025088440611
0.0250893716304
0.0250907736991
0.0250927834958
0.0250955389322
0.0250991815635
0.0251038834233
0.0251114629638
0.0251304134227
0.0251548180031
0.0251827549405
0.025214178647
0.0252490115031
0.0252869782186
0.0253276823895
0.025370589656
0.0254150196071
0.0254601563284
0.025505202305
0.0255493869543
0.0255919745145
0.0256321761785
0.0256685662457
0.025696773769
0.0257012776582
0.0256309891539
0.0253344483192
0.0244384150648
0.0224306858449
0.0250956886835
0.0250036340537
0.0216674726376
0.0232186162791
0.0238585674883
0.0240543007228
0.0241072046392
0.024120180683
0.0241229968573
0.0241234209749
0.0241233848801
0.0241233938605
0.0241236316953
0.0241242175185
0.024125263395
0.0241268856556
0.0241292051073
0.024132379606
0.0241383401612
0.0241551845899
0.0241770326832
0.0242021415235
0.0242304769297
0.0242619523539
0.0242962755919
0.0243330688977
0.0243719117566
0.0244121464283
0.0244529684224
0.024493672129
0.0245335587899
0.0245719746187
0.0246082968593
0.0246416193454
0.0246693516732
0.0246816291512
0.0246428982081
0.024436409243
0.0237446437325
0.0220957688705
0.0250636025881
0.02492128971
0.0208482882548
0.0216582910872
0.0219731970947
0.0220551951552
0.0220741826323
0.0220782963543
0.022079167741
0.022079399765
0.0220795771076
0.0220798571547
0.0220803135838
0.022081006806
0.022081998166
0.022083352053
0.0220851349417
0.0220874197966
0.0220905487864
0.0221014960601
0.0221185241275
0.0221381938446
0.0221602992768
0.0221847529206
0.0222112916758
0.0222395074444
0.0222693315683
0.0223001112352
0.0223311814774
0.0223620660619
0.0223922500285
0.0224212647886
0.0224487257699
0.0224742721686
0.0224971607966
0.022514167716
0.0225113470775
0.0224329649916
0.0220986437339
0.0212444539323
0.0249759994014
0.0250490125201
0.0249348384889
0.0250135451374
0.0250425106299
0.0250493896185
0.0250508365683
0.0250511661391
0.0250512914177
0.0250513924812
0.0250515061415
0.0250516425248
0.0250518069082
0.0250520036799
0.0250522369251
0.0250525103671
0.0250528271407
0.0250531898871
0.0250536101191
0.0250542435374
0.0250558596538
0.0250582804611
0.0250609924311
0.0250639606572
0.0250671501465
0.0250704908674
0.0250739892346
0.0250775633855
0.0250811279849
0.0250846323931
0.0250880201628
0.0250912422044
0.0250942624796
0.0250970557845
0.0250995804652
0.0251016144127
0.0251019993815
0.0250954951526
0.0250634672361
0.0249756856716
0.0250554072987
0.0252231681096
0.0265356357872
0.0271526428838
0.0273443545028
0.0273937746753
0.0274054664803
0.0274083910947
0.0274094980182
0.0274103033738
0.02741112254
0.0274120158981
0.0274129940707
0.0274140574378
0.0274152042085
0.0274164316328
0.0274177361595
0.0274191133715
0.0274205579186
0.0274220634469
0.0274236226926
0.0274252266029
0.0274268661561
0.0274285314443
0.0274302102093
0.0274318910606
0.0274335614948
0.0274352088049
0.0274368204095
0.0274383843293
0.0274398895807
0.0274413256888
0.0274426754576
0.0274438744616
0.0274445987966
0.0274432775405
0.0274327377661
0.0273832630031
0.0271884854998
0.0265618965578
0.0252256241149
0.0265343323697
0.0382598535345
0.0419912721556
0.0431974777506
0.043550791699
0.0436446338821
0.0436677825382
0.0436733185003
0.0436747334634
0.0436752324293
0.0436755408748
0.0436758231512
0.0436761192336
0.04367644192
0.0436767973167
0.0436771892944
0.043677620433
0.0436780922467
0.043678605188
0.0436791586597
0.0436797507132
0.0436803779302
0.0436810368655
0.0436817220254
0.0436824273364
0.043683145445
0.0436838680831
0.0436845858572
0.0436852873355
0.0436859543417
0.0436865400157
0.04368686628
0.0436861652975
0.0436810987936
0.0436577544139
0.0435620110327
0.0432029269087
0.0419848762119
0.0382362680028
0.0265245796234
0.0271507576368
0.0419900820288
0.0471710128306
0.0490663989584
0.0497080688478
0.0499051799152
0.0499603999569
0.0499746189154
0.049977878781
0.0499783579973
0.0499781319674
0.0499777071956
0.0499772080219
0.049976669731
0.049976106814
0.0499755285932
0.0499749427387
0.0499743560741
0.0499737747337
0.049973204181
0.0499726490941
0.0499721134592
0.0499716006823
0.0499711130837
0.0499706522486
0.0499702187389
0.0499698119638
0.0499694292627
0.0499690621741
0.0499686799297
0.0499681576916
0.0499669719378
0.0499629749009
0.0499477650719
0.0498906929667
0.0496896325758
0.0490399083915
0.0471313880124
0.041935889814
0.0271336488991
0.0273422734755
0.0431956557005
0.0490656715433
0.0513589590007
0.052196436501
0.0524749256655
0.0525591238353
0.0525823106391
0.0525878922361
0.0525886907844
0.0525882055489
0.0525873419921
0.0525863299446
0.0525852326218
0.0525840732114
0.0525828652959
0.0525816199639
0.0525803474792
0.0525790576578
0.0525777599358
0.0525764633236
0.0525751763874
0.0525739072352
0.0525726632307
0.0525714510774
0.0525702765633
0.0525691441192
0.0525680550105
0.0525669998887
0.0525659270653
0.0525646108979
0.0525621269546
0.0525548852554
0.0525297945369
0.0524427772304
0.0521593475616
0.0513131448809
0.0490073131244
0.043126378683
0.0273219295768
0.027391648526
0.0435486797054
0.0497069571159
0.0521960245061
0.0531416260794
0.0534696616993
0.0535731228586
0.0536027918992
0.0536102327822
0.0536113945499
0.0536108184256
0.0536097236718
0.0536084283355
0.0536070199285
0.0536055290198
0.0536039723652
0.0536023632796
0.0536007141264
0.0535990369033
0.0535973433556
0.0535956449468
0.053593952801
0.05359227762
0.0535906295361
0.0535890180285
0.0535874516692
0.0535859374508
0.0535844781741
0.0535830616881
0.0535816161869
0.053579830567
0.0535764652455
0.0535668776617
0.0535348271116
0.0534280594789
0.0530946481248
0.0521401921586
0.0496393094689
0.0434724987471
0.0273699836932
0.0274033414126
0.0436423936528
0.0499038778799
0.0524742981174
0.0534694394571
0.0538219659682
0.0539355905313
0.0539688942864
0.0539774523914
0.0539788709751
0.0539782793235
0.0539770840978
0.0539756589161
0.053974107416
0.0539724652727
0.0539707514193
0.053968980597
0.0539671664117
0.0539653220704
0.0539634605229
0.0539615944354
0.0539597361156
0.0539578974162
0.0539560896079
0.053954323256
0.0539526079446
0.0539509514631
0.0539493566447
0.0539478084043
0.0539462207452
0.0539442279325
0.0539404009856
0.0539295005587