/*--------------------------------*- C++ -*----------------------------------*\
| =========                 |                                                 |
| \\      /  F ield         | foam-extend: Open Source CFD                    |
|  \\    /   O peration     | Version:     4.1                                |
|   \\  /    A nd           | Web:         http://www.foam-extend.org         |
|    \\/     M anipulation  |                                                 |
\*---------------------------------------------------------------------------*/
FoamFile
{
    version     2.0;
    format      ascii;
    class       volScalarField;
    location    "0.2";
    object      nut;
}
// * * * * * * * * * * * * * * * * * * * * * * * * * * * * * * * * * * * * * //

dimensions      [0 2 -1 0 0 0 0];

internalField   nonuniform List<scalar> 
96000
(
0.000414599127647
0.000413745902061
0.000414605345161
0.000414931199429
0.000415012607887
0.000415029983257
0.000415033083012
0.000415033119748
0.00041503243216
0.000415031494939
0.000415030409294
0.000415029199975
0.000415027876072
0.00041502644313
0.000415024906193
0.000415023270675
0.000415021542725
0.000415019729412
0.000415017838906
0.000415015880051
0.000415013865086
0.000415011807097
0.000415009713484
0.000415007602226
0.000415005486381
0.000415003381147
0.000415001301606
0.000414999262251
0.000414997275992
0.00041499535239
0.000414993493024
0.000414991676021
0.000414989786144
0.000414987288736
0.00041498162862
0.000414960871082
0.000414872921468
0.000414532240643
0.000413649312389
0.000414595598851
0.00041375070018
0.000252957013134
0.000258910218156
0.000261286424627
0.000261947128672
0.000262110923255
0.000262149316357
0.00026215864693
0.000262161663918
0.000262163441244
0.000262165063899
0.000262166763593
0.000262168591746
0.000262170561881
0.000262172678035
0.000262174940495
0.000262177346795
0.00026217989184
0.000262182567734
0.00026218536377
0.000262188265634
0.000262191256414
0.000262194318022
0.000262197427322
0.000262200560409
0.000262203690902
0.000262206791079
0.000262209832104
0.000262212783566
0.000262215607924
0.000262218230428
0.000262220387464
0.000262220910691
0.000262214443076
0.000262177244306
0.000262010070539
0.000261334560942
0.000258926173571
0.000252970402877
0.00041377492913
0.000414608787825
0.000258906936863
0.000269776416011
0.000274348177061
0.000275830185993
0.000276257730875
0.000276370621027
0.000276398453715
0.000276404900503
0.000276406229406
0.000276406347589
0.000276406164472
0.000276405894852
0.000276405598232
0.000276405298825
0.000276405011882
0.000276404749356
0.000276404521073
0.000276404334877
0.000276404196604
0.000276404109813
0.000276404076131
0.00027640409545
0.000276404164766
0.000276404279405
0.000276404432499
0.000276404615063
0.000276404814742
0.000276405009915
0.000276405141714
0.000276404986469
0.000276403588313
0.000276396854451
0.000276367899367
0.000276251217594
0.000275812917641
0.000274305724844
0.000269694719532
0.000258849901594
0.000414617110976
0.000414933972141
0.000261281191226
0.000274345622732
0.00028016366495
0.000282216881313
0.000282862262677
0.000283046436472
0.000283094516596
0.000283105516306
0.000283106928353
0.000283105858585
0.000283104062533
0.000283101970778
0.000283099700918
0.00028309729799
0.000283094790014
0.000283092200549
0.000283089551521
0.000283086863806
0.000283084157301
0.000283081450787
0.00028307876191
0.00028307610715
0.000283073501265
0.00028307095756
0.000283068487463
0.000283066099847
0.000283063797935
0.000283061566029
0.000283059310964
0.0002830566094
0.000283051653367
0.000283037085573
0.000282984606247
0.000282793025252
0.000282132821946
0.000280051346277
0.000274197902381
0.000261184265439
0.000414934250215
0.000415015158556
0.000261941122443
0.000275826385786
0.000282215490476
0.000284571061649
0.000285345953137
0.000285576948231
0.000285639643194
0.00028565440314
0.000285656252208
0.000285654637927
0.000285651982512
0.000285648896551
0.000285645546949
0.000285641995032
0.000285638277318
0.000285634424331
0.000285630464985
0.000285626427559
0.000285622339842
0.000285618229035
0.000285614121608
0.000285610043126
0.000285606017958
0.000285602069134
0.000285598217901
0.000285594482557
0.000285590873786
0.000285587374952
0.000285583857516
0.000285579727606
0.000285572506824
0.000285552459614
0.00028548366505
0.000285243475766
0.000284452083707
0.000282067908452
0.000275647729846
0.000261828533173
0.000415013165451
0.000415032458595
0.000262104642058
0.000276253393444
0.000282860216039
0.000285345266228
0.000286180804139
0.000286435433848
0.000286506040826
0.000286523026336
0.000286525256512
0.0002865234577
0.000286520438863
0.000286516920954
0.000286513102583
0.000286509055714
0.000286504822122
0.00028650043629
0.000286495930832
0.000286491337754
0.000286486688636
0.000286482014527
0.000286477345756
0.000286472711718
0.00028646814061
0.000286463659203
0.000286459292338
0.000286455061495
0.000286450979114
0.000286447024723
0.000286443044132
0.0002864383363
0.000286430030555
0.00028640708541
0.000286329675463
0.000286065034029
0.000285212115108
0.000282698028541
0.000276061660722
0.000261985997027
0.000415030430485
0.000415035522081
0.000262142904255
0.000276365996713
0.000283044021474
0.000285575863834
0.000286435029958
0.000286699456088
0.000286773529444
0.000286791548334
0.000286793980492
0.000286792118291
0.000286788952046
0.000286785257946
0.000286781251974
0.000286777012689
0.000286772585467
0.000286768007492
0.000286763313773
0.000286758538514
0.000286753715315
0.000286748877039
0.000286744055588
0.000286739281654
0.000286734584469
0.000286729991527
0.000286725528072
0.000286721215544
0.000286717065357
0.000286713052838
0.000286709008194
0.000286704174481
0.000286695491394
0.000286671322873
0.000286590172127
0.000286315242649
0.00028543783839
0.000282875743414
0.000276167383727
0.000262020690856
0.000415034291166
0.000415035530924
0.000262152132802
0.000276393600724
0.000283091804254
0.000285638234287
0.000286505305027
0.000286773196498
0.000286848550539
0.000286866957613
0.000286869455523
0.000286867551163
0.000286864308671
0.000286860529187
0.000286856438073
0.000286852118494
0.000286847618899
0.00028684297897
0.000286838235877
0.000286833425687
0.00028682858353
0.000286823743432
0.000286818938043
0.00028681419834
0.000286809553377
0.000286805029985
0.000286800652272
0.000286796440026
0.000286792402262
0.000286788510169
0.000286784584353
0.000286779840244
0.000286771133221
0.000286746579875
0.00028666402878
0.000286385206739
0.000285498873641
0.000282920312128
0.000276189647646
0.000262026687491
0.000415035518338
0.000415034813615
0.000262155049108
0.000276399814591
0.000283102497127
0.000285652656744
0.00028652194436
0.000286790868363
0.00028686661138
0.000286885121196
0.000286887609807
0.000286885656131
0.000286882352514
0.000286878511834
0.000286874365466
0.000286870000595
0.00028686546889
0.000286860812842
0.000286856072065
0.000286851284685
0.000286846487453
0.000286841715496
0.000286837001997
0.000286832377822
0.000286827871245
0.000286823507668
0.000286819309134
0.000286815292744
0.000286811464156
0.000286807790112
0.000286804084054
0.000286799545971
0.000286790990927
0.000286766426263
0.000286683427428
0.000286403137073
0.000285513389355
0.000282928735151
0.000276190668761
0.00026202626403
0.000415036339136
0.000415033839596
0.000262156728848
0.000276400896103
0.000283103574348
0.000285654133548
0.000286523791618
0.00028679291728
0.000286868728398
0.000286887230792
0.000286889676645
0.000286887666554
0.000286884304528
0.000286880410493
0.000286876220932
0.000286871827245
0.000286867284855
0.000286862639614
0.000286857934094
0.00028685320891
0.00028684850273
0.000286843851925
0.000286839290124
0.000286834847833
0.000286830552083
0.000286826426153
0.000286822489117
0.000286818754344
0.000286815223046
0.000286811856682
0.000286808461787
0.000286804226827
0.000286795941615
0.000286771550008
0.000286688474028
0.000286407532626
0.000285516060244
0.000282928234345
0.00027618662004
0.000262024590446
0.000415037221618
0.000415032706132
0.000262158265779
0.000276400757097
0.000283102142694
0.0002856521116
0.000286521572341
0.000286790635248
0.000286866408843
0.000286884866607
0.000286887259047
0.000286885192453
0.000286881777428
0.000286877839856
0.000286873621559
0.00028686921882
0.000286864691553
0.000286860089713
0.0002868554595
0.000286850844573
0.00028684628589
0.000286841821246
0.000286837484712
0.000286833306116
0.000286829310664
0.000286825518665
0.000286821945123
0.000286818598367
0.000286815473738
0.000286812526036
0.000286809553893
0.000286805734467
0.000286797835651
0.000286773748564
0.000286690768078
0.000286409439215
0.00028551666112
0.000282926248264
0.000276181739605
0.000262023001389
0.00041503829044
0.0004150314343
0.000262159902018
0.000276400315479
0.000283099963858
0.000285649018386
0.000286518100886
0.000286787018613
0.000286862723804
0.00028688112907
0.000286883470441
0.000286881355394
0.000286877900143
0.000286873936894
0.000286869713612
0.00028686533239
0.000286860858601
0.000286856347222
0.000286851848893
0.00028684741096
0.000286843077162
0.00028683888694
0.000286834874728
0.00028683106927
0.000286827493183
0.00028682416268
0.000286821087277
0.000286818268569
0.000286815694143
0.000286813310203
0.000286810905655
0.000286807644789
0.000286800272348
0.000286776625072
0.000286693865851
0.000286412249547
0.000285518199527
0.000282925092969
0.000276177430098
0.000262022038028
0.000415039606334
0.000415030029623
0.000262161699561
0.000276399795206
0.000283097475542
0.000285645470858
0.000286514104831
0.000286782851018
0.000286858483046
0.000286876841134
0.000286879142549
0.000286876995058
0.000286873520983
0.00028686955982
0.000286865366817
0.000286861051089
0.000286856684652
0.000286852328592
0.000286848038995
0.00028684386773
0.000286839861883
0.000286836062797
0.000286832505105
0.000286829215943
0.000286826214373
0.000286823511101
0.00028682110831
0.000286818998672
0.000286817159587
0.000286815526093
0.000286813874802
0.00028681135453
0.000286804683618
0.000286781638148
0.000286699233427
0.000286417395859
0.000285521998113
0.000282925876127
0.00027617449072
0.000262022105888
0.000415041219918
0.000415028494108
0.000262163682578
0.000276399265172
0.000283094802755
0.000285641642628
0.000286509789862
0.000286778356526
0.000286853921458
0.000286872245496
0.00028687452533
0.00028687236932
0.000286868906967
0.000286864986388
0.000286860871569
0.00028685668011
0.000286852492083
0.000286848376079
0.000286844394855
0.000286840605814
0.000286837060042
0.000286833801087
0.00028683086366
0.00028682827261
0.000286826042215
0.000286824175884
0.000286822666142
0.000286821493967
0.000286820623475
0.000286819975251
0.000286819310273
0.000286817758402
0.000286812007107
0.000286789763302
0.000286707874287
0.00028642588973
0.000285529039363
0.00028292949246
0.000276173651316
0.000262023620076
0.000415043181254
0.000415026829319
0.000262165865801
0.000276398759252
0.000283091998324
0.000285637602185
0.0002865052356
0.000286773622569
0.000286849132779
0.00028686744208
0.000286869725594
0.000286867593049
0.000286864182539
0.000286860352464
0.000286856377282
0.000286852384817
0.000286848464983
0.000286844695551
0.000286841147436
0.000286837884757
0.000286834963509
0.000286832429834
0.000286830318361
0.00028682865082
0.0002868274352
0.000286826665395
0.000286826321392
0.000286826369015
0.0002868267552
0.000286827381984
0.00028682799051
0.000286827687321
0.000286823123522
0.000286801926762
0.000286720752657
0.000286438718749
0.000285540305463
0.000282936867396
0.000276175697446
0.000262027038035
0.000415045540769
0.000415025037275
0.000262168260195
0.000276398302641
0.000283089098549
0.000285633393854
0.000286500492271
0.000286768704382
0.000286844177337
0.000286862497003
0.000286864816345
0.000286862747554
0.000286859439049
0.000286855761461
0.000286852001757
0.000286848300146
0.000286844758502
0.000286841465757
0.000286838502799
0.000286835942017
0.000286833845386
0.000286832262172
0.000286831226753
0.000286830756773
0.000286830852063
0.000286831494314
0.000286832647467
0.000286834257957
0.000286836250771
0.000286838504297
0.000286840734656
0.000286842019724
0.000286838967725
0.000286819115517
0.000286738900496
0.000286456945922
0.000285556862208
0.000282949016094
0.000276181500469
0.000262032866726
0.000415048347947
0.00041502312094
0.000262170873765
0.000276397917385
0.000283086135725
0.000285629056641
0.000286495603676
0.000286763650111
0.000286839108052
0.000286857468901
0.000286859863208
0.000286857907023
0.000286854761103
0.000286851310572
0.00028684785738
0.000286844556645
0.000286841524661
0.000286838863973
0.000286836667671
0.000286835018289
0.000286833985149
0.000286833621324
0.000286833960717
0.000286835015807
0.000286836776146
0.00028683920798
0.00028684225493
0.000286845838893
0.00028684985709
0.000286854158058
0.000286858426587
0.000286861705444
0.000286860552345
0.00028684240036
0.000286763439197
0.000286481728821
0.000285579873835
0.000282967052472
0.000276192020692
0.000262041660985
0.000415051649127
0.000415021084537
0.000262173711338
0.000276397623308
0.000283083140833
0.000285624628526
0.000286490612537
0.000286758506688
0.000286833976538
0.000286852415072
0.000286854930519
0.000286853144469
0.000286850232331
0.000286847096404
0.000286844056469
0.000286841285431
0.000286838917037
0.000286837070334
0.000286835853306
0.000286835360921
0.000286835671496
0.000286836842763
0.000286838908136
0.000286841873661
0.000286845716086
0.000286850382387
0.000286855790786
0.000286861832463
0.000286868369873
0.000286875214233
0.000286882011396
0.000286887761338
0.0002868889624
0.000286872929303
0.000286795571584
0.00028651430991
0.000285610591726
0.000282992176962
0.000276208296294
0.00026205401555
0.00041505548463
0.000415018933703
0.000262176774097
0.000276397437888
0.0002830801439
0.000285620147243
0.000286485561519
0.000286753320954
0.000286828834192
0.000286847392478
0.000286850082162
0.000286848532343
0.000286845935785
0.000286843214998
0.000286840710805
0.000286838617368
0.000286837089359
0.000286836265776
0.0002868362727
0.000286837220204
0.000286839197704
0.000286842268793
0.000286846466373
0.000286851788686
0.000286858196784
0.000286865613913
0.000286873926905
0.000286882988897
0.000286892619221
0.000286902582793
0.00028691247736
0.000286921250856
0.000286925331983
0.000286911900926
0.00028683655132
0.000286555984459
0.000285650327763
0.000283025658459
0.000276231433456
0.000262070553064
0.00041505988568
0.000415016675831
0.000262180058905
0.00027639737572
0.000283077173709
0.000285615650131
0.000286480493127
0.000286748139499
0.000286823731948
0.000286842457312
0.000286845380878
0.000286844141589
0.000286841952585
0.000286839759976
0.000286837929344
0.000286836680041
0.000286836191711
0.000286836627312
0.000286838134684
0.000286840842351
0.000286844853364
0.000286850238639
0.000286857030692
0.00028686521849
0.000286874744136
0.000286885501982
0.000286897340458
0.00028691006594
0.000286923444503
0.000286937183681
0.000286950821931
0.000286963243921
0.000286970806359
0.000286960542883
0.000286887689578
0.000286608328849
0.000285701127754
0.000283069836969
0.000276263602201
0.000262092137913
0.000415064883924
0.000415014319413
0.000262183558053
0.000276397448137
0.000283074257435
0.000285611173726
0.00028647544922
0.000286743008079
0.000286818719493
0.000286837663976
0.000286840886998
0.000286840039981
0.000286838359778
0.000286836819868
0.000286835814784
0.000286835593496
0.000286836365237
0.000286838321429
0.000286841636087
0.000286846460038
0.000286852912974
0.000286861074974
0.000286870978478
0.000286882601635
0.000286895863921
0.000286910624804
0.000286926685853
0.000286943795697
0.000286961654261
0.000286979900427
0.000286998019315
0.000287014843864
0.00028702714289
0.00028702170063
0.00028695320544
0.000286687921984
0.000285794717499
0.000283164751941
0.000276343000327
0.000262129874167
0.000415070781018
0.000415011880632
0.000262187257092
0.000276397662232
0.000283071420014
0.000285606753231
0.000286470470413
0.00028673797084
0.000286813844299
0.000286833063884
0.000286836656885
0.000286836290134
0.000286835227788
0.000286834474894
0.000286834459508
0.000286835465158
0.000286837735762
0.000286841496387
0.000286846952212
0.000286854280792
0.000286863622002
0.000286875067326
0.000286888649639
0.000286904334604
0.000286922014752
0.000286941507063
0.000286962554701
0.000286984835296
0.000287007995116
0.000287031817842
0.000287056391647
0.00028708145691
0.000287123219908
0.000287149083688
0.000287111368355
0.000286862229339
0.000285974654224
0.000283340105791
0.000276500661238
0.000262249131471
0.000415080907404
0.0004150093698
0.000262191138728
0.000276398021805
0.000283068684005
0.000285602421977
0.000286465595358
0.000286733069459
0.00028680915056
0.000286828704094
0.000286832741193
0.00028683294724
0.000286832617615
0.00028683279338
0.000286833941066
0.000286836384126
0.000286840406729
0.000286846273381
0.000286854225945
0.000286864473709
0.000286877180796
0.000286892452733
0.000286910323454
0.000286930743978
0.000286953573614
0.00028697857511
0.000287005432205
0.000287033925486
0.000287064767936
0.000287109285456
0.00028717413323
0.000287240137631
0.000287300758042
0.000287341368065
0.000287315462595
0.000287074816459
0.000286190341044
0.000283549582035
0.000276691273845
0.000262401128574
0.000415107054362
0.00041500679777
0.000262195180272
0.000276398526075
0.000283066068885
0.000285598210777
0.000286460860029
0.000286728342261
0.000286804678084
0.000286824625905
0.000286829183074
0.000286830056862
0.000286830577953
0.000286831828102
0.000286834317528
0.000286838415238
0.000286844451771
0.000286852737226
0.000286863556184
0.000286877155182
0.00028689372712
0.000286913394443
0.000286936192363
0.000286962052704
0.000286990790071
0.000287022144376
0.000287056633007
0.000287103793943
0.000287182790366
0.000287267197257
0.000287352182241
0.000287434536345
0.000287509520676
0.0002875631567
0.000287548799562
0.000287317009843
0.000286435990046
0.000283788718505
0.000276909798551
0.000262575531339
0.000415138925117
0.000415004188305
0.000262199349869
0.000276399168292
0.000283063590157
0.000285594147195
0.00028645629691
0.000286723823275
0.000286800461149
0.00028682086345
0.000286826016411
0.000286827652671
0.000286829142344
0.000286831612632
0.000286835622811
0.000286841593297
0.00028684990732
0.000286860927061
0.000286874986211
0.000286892374449
0.000286913318205
0.000286937959347
0.0002869663319
0.00028699833821
0.000287033824495
0.000287074463701
0.000287150959813
0.000287248218984
0.000287350309506
0.000287453315983
0.000287555068289
0.000287653374688
0.000287743667656
0.000287811762633
0.000287810419948
0.00028758871672
0.000286711854212
0.000284057818973
0.00027715640879
0.000262771772686
0.00041517451089
0.000415001558113
0.000262203612982
0.000276399937391
0.000283061259384
0.00028559025494
0.000286451934131
0.000286719541176
0.000286796527241
0.000286817442189
0.000286823264031
0.000286825754252
0.000286828326454
0.000286832157981
0.000286837862461
0.00028684591765
0.000286856765796
0.000286870827762
0.000286888492899
0.000286910099996
0.00028693591337
0.00028696609416
0.000287000666982
0.00028703964073
0.000287086098963
0.000287185286213
0.000287298316104
0.000287417043972
0.000287538078729
0.000287659471193
0.000287779401205
0.000287895486961
0.000288002875993
0.000288087038335
0.000288100081823
0.000287889490316
0.000287017193599
0.000284355684678
0.000277429129165
0.000262987196893
0.00041521306355
0.000414998927878
0.000262207929114
0.000276400816681
0.000283059082938
0.000285586552315
0.000286447793635
0.00028671551723
0.00028679289481
0.000286814376458
0.000286820935006
0.00028682436411
0.000286828124697
0.000286833448693
0.000286841009129
0.000286851346794
0.00028686496909
0.000286882361998
0.000286903976886
0.000286930207127
0.000286961356962
0.000286997600975
0.000287039085584
0.00028709195926
0.000287202318546
0.000287328795983
0.000287462913818
0.000287601516067
0.000287742644617
0.000287884304421
0.000288024295345
0.000288159875624
0.000288285896128
0.000288387493228
0.000288416114822
0.000288217583599
0.000287350363508
0.000284681088586
0.000277727415043
0.000263221428584
0.000415254350351
0.000414996318668
0.000262212253278
0.000276401782982
0.000283057058944
0.000285583047458
0.000286443885303
0.00028671175879
0.000286789566412
0.000286811662403
0.000286819017404
0.000286823460248
0.000286828502603
0.000286835434946
0.000286844994296
0.000286857789634
0.000286874399163
0.000286895379906
0.000286921250919
0.000286952463739
0.000286989359568
0.000287032194766
0.000287083864056
0.000287200225928
0.000287337316999
0.000287484815896
0.000287639524415
0.000287799484621
0.000287962500348
0.000288126102223
0.000288287665647
0.00028844410735
0.000288589997397
0.000288710145719
0.000288755329715
0.000288569656266
0.000287707982615
0.000285030839629
0.000278048947759
0.000263474561685
0.000415298511325
0.000414993751063
0.000262216535491
0.000276402800643
0.000283055163848
0.000285579718386
0.000286440182782
0.000286708232874
0.000286786501217
0.000286809249967
0.000286817450021
0.000286822967755
0.000286829368307
0.000286838003966
0.000286849679563
0.000286865076628
0.000286884848979
0.000286909629665
0.000286940009498
0.000286976497944
0.00028701950661
0.000287071193798
0.000287179130574
0.000287323167801
0.000287481165264
0.000287649417508
0.00028782606669
0.0002880088762
0.000288195136903
0.00028838190786
0.000288566160467
0.000288744477143
0.000288911146603
0.00028905064689
0.000289113064663
0.000288940728054
0.00028808472806
0.00028539916231
0.000278387178349
0.000263739169164
0.000415344143085
0.000414991243033
0.000262220715695
0.000276403793495
0.000283053293327
0.000285576427575
0.000286436521647
0.000286704755964
0.000286783500974
0.000286806927122
0.000286816005707
0.000286822641535
0.000286830454819
0.000286840861875
0.000286854738121
0.000286872840882
0.000286895903207
0.00028692463764
0.000286959707931
0.00028700168796
0.000287051814742
0.000287141049287
0.000287287135011
0.000287451946984
0.000287630220506
0.000287820226136
0.000288019921786
0.000288226559757
0.000288436940112
0.00028864767258
0.00028885532699
0.000289056144265
0.00028924412126
0.000289403390919
0.000289483326723
0.000289324434366
0.000288473951906
0.000285779408188
0.000278736061455
0.000264011007409
0.000415390468734
0.000414988804926
0.000262224693681
0.000276404515864
0.000283051006715
0.000285572564646
0.000286432181716
0.000286700546893
0.000286779749871
0.00028680385369
0.000286813821702
0.000286821593928
0.000286830845031
0.000286843055996
0.000286859174172
0.00028688003448
0.00028690645122
0.000286939217592
0.000286979068254
0.000287026751191
0.000287090285016
0.000287231036541
0.000287398191729
0.00028758228185
0.000287781359655
0.000287993807512
0.000288217114159
0.000288448051855
0.000288682959057
0.000288918001506
0.000289149342049
0.00028937287166
0.000289582287265
0.000289761373283
0.000289858796527
0.000289713265506
0.000288868200264
0.000286164565478
0.000279089490291
0.000264285770708
0.000415436806317
0.00041498642325
0.000262228175654
0.00027640397855
0.000283046461733
0.00028556561347
0.000286424248509
0.000286692493135
0.000286772040371
0.000286796768663
0.000286807595711
0.00028681648123
0.000286827148453
0.000286841140881
0.000286859477101
0.000286883069497
0.000286912813482
0.000286949581164
0.000286994192967
0.000287048623863
0.000287156213421
0.000287319846113
0.000287505131156
0.000287708404534
0.000287928536837
0.000288163549899
0.000288410486983
0.000288665682157
0.000288925026022
0.000289184240448
0.000289439078389
0.000289685077316
0.000289915633903
0.000290114198723
0.000290228788962
0.000290096455348
0.000289257030474
0.000286545119168
0.000279439526968
0.000264558025995
0.000415482292008
0.000414983988761
0.000262229948896
0.000276398019772
0.00028303221449
0.000285545737392
0.000286401564881
0.00028666882633
0.000286748336978
0.000286773503682
0.000286785067736
0.000286794957165
0.000286806924497
0.000286822567864
0.000286842972957
0.000286869126658
0.000286902002254
0.000286942545635
0.000286991751909
0.000287058212752
0.000287208820036
0.000287390045614
0.000287592380736
0.000287814541015
0.000288055318856
0.000288312347224
0.000288582279517
0.000288861042348
0.000289144087306
0.000289426696709
0.000289704219965
0.000289971848304
0.000290222697248
0.00029043995193
0.000290571181061
0.000290452249677
0.000289620208889
0.000286904086628
0.000279774089621
0.000264821433825
0.000415526049985
0.000414980964394
0.000262224563003
0.000276369578056
0.000282979735506
0.000285476750304
0.00028632400888
0.000286587718058
0.000286666114926
0.000286691211348
0.000286703178526
0.000286713766645
0.000286726705656
0.000286743627982
0.000286765675699
0.000286793902245
0.000286829350718
0.000286873044222
0.00028692686967
0.000287027611401
0.000287197180297
0.000287393094342
0.000287611237692
0.00028785104205
0.000288111006659
0.000288388436813
0.00028867964839
0.000288980194466
0.000289285100217
0.000289589227931
0.000289887550738
0.000290174945998
0.000290444319379
0.000290678802829
0.000290826112361
0.000290722325114
0.000289904195649
0.000287197891999
0.000280064957404
0.000265064924431
0.000415566814974
0.000414974761606
0.000262188023419
0.000276252688753
0.000282787273777
0.000285235388341
0.00028605814317
0.000286311631944
0.000286386273904
0.000286410101651
0.000286421689425
0.000286432250727
0.000286445372511
0.000286462676429
0.000286485337555
0.000286514458123
0.000286551133877
0.000286596463292
0.000286653703977
0.000286788390457
0.000286970503523
0.000287177859968
0.000287408915306
0.000287663145238
0.000287938757445
0.000288232816686
0.000288541367773
0.000288859648623
0.000289182283443
0.000289503773937
0.000289818788587
0.000290121977634
0.000290406222441
0.000290655134882
0.000290818081647
0.00029073498712
0.000289949266559
0.000287293192877
0.000280223079509
0.000265254184974
0.000415600773509
0.000414953315284
0.000262020418859
0.000275812467601
0.000282124253126
0.000284440775404
0.000285201800143
0.000285430643633
0.000285496194624
0.0002855164407
0.000285526140319
0.000285535247092
0.000285546975556
0.000285562852627
0.000285584041323
0.000285611656932
0.000285646815539
0.000285690781211
0.000285756007613
0.00028590993239
0.000286097773565
0.000286310774779
0.000286548551193
0.000286810417923
0.000287094334053
0.000287397256488
0.000287715080712
0.000288042841968
0.000288374812222
0.000288705281834
0.00028902876418
0.000289339859348
0.0002896317938
0.000289889722925
0.000290067767899
0.000290017709768
0.000289306519925
0.000286798664887
0.000279966614145
0.000265266648439
0.000415612508133
0.000414864129664
0.000261342019296
0.000274300178326
0.00028003683984
0.000282050333361
0.000282681107028
0.00028286144753
0.000282909886277
0.000282923264813
0.000282928898617
0.000282934406384
0.00028294230995
0.000282953921119
0.00028297031781
0.000282992564876
0.000283021742343
0.000283059385973
0.000283129145469
0.000283281678991
0.000283465098781
0.000283673379392
0.000283906519262
0.00028416367542
0.000284442586127
0.000284740319765
0.000285052883094
0.000285375260688
0.000285701468136
0.000286025910167
0.000286343195231
0.000286648153691
0.000286934892023
0.000287191657549
0.000287382193412
0.000287384095971
0.000286821559228
0.000284654812456
0.000278454987867
0.000264665683744
0.000415540085616
0.000414521004625
0.00025892789891
0.000269681874656
0.000274176405273
0.000275623457956
0.00027603776973
0.00027614535417
0.000276170375934
0.000276174962344
0.000276175390085
0.000276176061263
0.000276178559746
0.000276183863909
0.000276192865321
0.000276206474875
0.000276225630481
0.000276251806439
0.000276309701721
0.000276446740834
0.000276613274119
0.000276803181103
0.000277016396824
0.00027725203008
0.00027750757661
0.000277780334732
0.000278067187913
0.000278363061637
0.000278661974228
0.000278958984443
0.000279249139314
0.000279527854665
0.000279790612703
0.000280030081556
0.000280224461554
0.000280294102766
0.000279971010421
0.000278434445393
0.000273584398163
0.000262179075988
0.000415183454177
0.000413635177828
0.000252975862359
0.000258844807309
0.000261173949494
0.000261817068529
0.00026197518217
0.0002620113051
0.000262019248208
0.000262021282259
0.000262022652876
0.000262024792843
0.000262028346726
0.000262033819928
0.000262041715265
0.000262052554696
0.000262066872275
0.000262085279299
0.000262111351721
0.000262211240461
0.000262345568293
0.000262499032584
0.000262670655235
0.000262859627554
0.000263063520011
0.000263279286658
0.000263506948171
0.000263740694418
0.000263975658084
0.000264208450332
0.000264435295111
0.000264652850899
0.000264858400566
0.000265049180241
0.000265218663319
0.00026533874543
0.000265295988268
0.000264668856788
0.000262192213381
0.000256005082612
0.000414235803064
0.000414594936064
0.000413775486129
0.000414616534992
0.000414933096903
0.000415011972724
0.000415029434021
0.000415033600891
0.000415035212273
0.000415036493647
0.000415037918248
0.000415039616698
0.000415041654124
0.000415044082753
0.000415046950203
0.000415050299073
0.000415054164402
0.000415058576988
0.000415063713463
0.000415071789089
0.000415091727149
0.000415119921328
0.000415151331827
0.000415185560515
0.000415222136873
0.000415260242537
0.000415300119418
0.00041534065934
0.000415380933229
0.000415420412736
0.000415458481029
0.00041549461982
0.000415528462185
0.000415559751854
0.000415587978354
0.000415610320146
0.000415612840854
0.000415536044037
0.00041518098479
0.000414232452414
0.000414668403479
0.000416309967819
0.00042858476492
0.000434484400721
0.000436411871687
0.000436939148427
0.000437071196433
0.000437105592656
0.000437118523776
0.000437127597092
0.000437136671643
0.000437146522045
0.000437157293714
0.000437168996801
0.000437181612845
0.000437195111519
0.000437209453373
0.000437224589296
0.000437240459944
0.000437256994963
0.000437274114318
0.000437291716187
0.000437309703599
0.00043732796989
0.000437346377031
0.000437364801802
0.000437383108329
0.000437401158741
0.000437418817044
0.00043743595447