/*--------------------------------*- C++ -*----------------------------------*\
| =========                 |                                                 |
| \\      /  F ield         | foam-extend: Open Source CFD                    |
|  \\    /   O peration     | Version:     4.1                                |
|   \\  /    A nd           | Web:         http://www.foam-extend.org         |
|    \\/     M anipulation  |                                                 |
\*---------------------------------------------------------------------------*/
FoamFile
{
    version     2.0;
    format      ascii;
    class       volScalarField;
    location    "0.2";
    object      p;
}
// * * * * * * * * * * * * * * * * * * * * * * * * * * * * * * * * * * * * * //

dimensions      [1 -1 -2 0 0 0 0];

internalField   nonuniform List<scalar> 
96000
(
5179.3358036
5179.37807973
5179.51465107
5179.7133144
5179.99136971
5180.33897828
5180.75792231
5181.2439969
5181.79529529
5182.4085378
5183.08069046
5183.80823983
5184.5874555
5185.41426512
5186.28428241
5187.19279339
5188.13476455
5189.10485194
5190.09742161
5191.10655606
5192.12613237
5193.14976379
5194.17091859
5195.18293397
5196.17904044
5197.15242912
5198.09629297
5199.00388185
5199.86855005
5200.68381615
5201.4433925
5202.14128287
5202.77174452
5203.32941961
5203.80959001
5204.20702556
5204.52102676
5204.74280498
5204.89015273
5204.93892451
5179.3854295
5179.40595009
5179.52665809
5179.71575707
5179.98940297
5180.33533755
5180.75393338
5181.24038749
5181.79242249
5182.406638
5183.07991775
5183.80871965
5184.58929274
5185.41755364
5186.28910673
5187.19922965
5188.14288024
5189.11470605
5190.10906345
5191.12003649
5192.14148015
5193.16701032
5194.19003782
5195.20392913
5196.20190049
5197.17713385
5198.1228159
5199.03219531
5199.89863379
5200.71567048
5201.47706542
5202.17691055
5202.80965653
5203.37028363
5203.85484846
5204.2593302
5204.58594232
5204.82769577
5205.00985409
5205.09237043
5179.54420238
5179.54940043
5179.65554816
5179.83426107
5180.10287027
5180.44809807
5180.86886681
5181.3595262
5181.91715765
5182.53807116
5183.21895632
5183.95617351
5184.7459014
5185.58400527
5186.46604226
5187.38724285
5188.3425144
5189.32644963
5190.33334375
5191.35721342
5192.3918285
5193.4307259
5194.4672686
5195.49470362
5196.50617018
5197.49476601
5198.45359915
5199.37584986
5200.25483234
5201.08407184
5201.85737445
5202.56896472
5203.21359338
5203.78673335
5204.28534884
5204.70644981
5205.05388939
5205.31976157
5205.52891212
5205.62666665
5179.77567778
5179.77158893
5179.86747002
5180.038878
5180.30460832
5180.6511775
5181.07652915
5181.57429158
5182.14093997
5182.77245997
5183.46531874
5184.21574738
5185.01982805
5185.87334893
5186.77179422
5187.71031968
5188.68375225
5189.68659644
5190.71304964
5191.75702206
5192.81216546
5193.87190113
5194.92946386
5195.97795838
5197.01038796
5198.01971499
5198.9989182
5199.94106014
5200.83935929
5201.68728057
5202.47862861
5203.20770703
5203.86948764
5204.45979515
5204.9762286
5205.41627773
5205.78462573
5206.07149146
5206.30155501
5206.410175
5180.09973573
5180.0915201
5180.18261493
5180.35128584
5180.61803208
5180.9695547
5181.40333432
5181.91248264
5182.49299892
5183.14056566
5183.85143053
5184.62167735
5185.4472701
5186.32389316
5187.24692763
5188.21142039
5189.21207926
5190.24327714
5191.29906573
5192.37319591
5193.45914605
5194.55015466
5195.6392635
5196.71936678
5197.78325638
5198.82368126
5199.83341072
5200.80530757
5201.73240936
5202.60802945
5203.42586656
5204.18017423
5204.86596079
5205.47912879
5206.01746719
5206.47832375
5206.8663725
5207.16963859
5207.41281554
5207.52450171
5180.50541529
5180.49570895
5180.58636717
5180.75659195
5181.02840538
5181.38866701
5181.83471977
5182.3593413
5182.95820801
5183.62675843
5184.3610506
5185.15702238
5186.01051004
5186.91707583
5187.87197399
5188.87011368
5189.90605021
5190.9739869
5192.06778749
5193.18099659
5194.30686815
5195.43840021
5196.56837795
5197.68942349
5198.79404811
5199.87471444
5200.9239049
5201.93420007
5202.89836635
5203.80946359
5204.66096218
5205.44691225
5206.16215222
5206.80239104
5207.36524749
5207.84755462
5208.2536948
5208.56985751
5208.82168967
5208.93418451
5180.99488613
5180.98494868
5181.07803292
5181.25308615
5181.53352617
5181.90616778
5182.36836125
5182.9126394
5183.53445834
5184.22905927
5184.99233652
5185.82008537
5186.7080068
5187.65152468
5188.64574384
5189.68540769
5190.76488591
5191.87817397
5193.01890444
5194.18036714
5195.35553794
5196.53711503
5197.71756309
5198.88916479
5200.04407795
5201.17440121
5202.27224722
5203.32982543
5204.33953445
5205.29407311
5206.1865602
5207.01069785
5207.76098054
5208.43272405
5209.02316244
5209.52845948
5209.95272133
5210.28070685
5210.53981976
5210.65243217
5181.56370098
5181.55421482
5181.6517439
5181.83417348
5182.12627801
5182.5146135
5182.99659412
5183.56454052
5184.21374913
5184.9392944
5185.7369251
5186.60229631
5187.53096685
5188.51820757
5189.55895324
5190.6477554
5191.77876676
5192.94573848
5194.1420302
5195.36062992
5196.59418312
5197.83503026
5199.07525275
5200.30672678
5201.52118451
5202.71028361
5203.86568474
5204.97913856
5206.04258172
5207.04825011
5207.98879935
5208.85746166
5209.64825578
5210.35597147
5210.97734617
5211.5078189
5211.95132198
5212.29139326
5212.55778304
5212.67032956
5182.20997912
5182.20127241
5182.30463887
5182.49639745
5182.80274018
5183.20977905
5183.71500292
5184.31051258
5184.99146919
5185.75279225
5186.59009217
5187.49888183
5188.47456939
5189.51225801
5190.60669233
5191.7522067
5192.94270622
5194.17166185
5195.43211896
5196.71671686
5198.01771821
5199.32704792
5200.63634098
5201.93699922
5203.2202563
5204.47725133
5205.6991109
5206.87704028
5208.00242328
5209.06693778
5210.06267772
5210.98230525
5211.81926642
5212.5677385
5213.2239089
5213.78247008
5214.24728632
5214.60070328
5214.87525375
5214.98777649
5182.93038462
5182.92267884
5183.03301188
5183.23575387
5183.55863407
5183.98717529
5184.51894343
5185.14579773
5185.86277067
5186.66462778
5187.54684132
5188.50477684
5189.53368206
5190.6284778
5191.78369896
5192.99343807
5194.25132283
5195.55050874
5196.88368612
5198.2430991
5199.62057537
5201.00756646
5202.39519786
5203.77432884
5205.13562157
5206.46961928
5207.76683319
5209.01783858
5210.21337918
5211.34448612
5212.40260308
5213.37973612
5214.26868014
5215.06293132
5215.75808602
5216.34804952
5216.83667636
5217.20501086
5217.48874132
5217.60114775
5183.72185194
5183.71529546
5183.83355567
5184.04874266
5184.39027636
5184.84297148
5185.40447189
5186.06636732
5186.82355842
5187.67065103
5188.60297501
5189.61574136
5190.70402684
5191.86255531
5193.08563283
5194.36708613
5195.70023636
5197.07788888
5198.49233855
5199.93538802
5201.3983779
5202.87222843
5204.34749216
5205.81441729
5207.26302126
5208.68317403
5210.06469066
5211.39743315
5212.67142043
5213.87695207
5215.00473854
5216.04605054
5216.99295993
5217.83821549
5218.57677539
5219.20168998
5219.71682304
5220.10173634
5220.39564263
5220.50769763
5184.58079947
5184.57551961
5184.70259571
5184.93159206
5185.29378909
5185.77319209
5186.36752761
5187.0680878
5187.86963501
5188.76660715
5189.7541856
5190.82741879
5191.98120194
5193.21004776
5194.50801512
5195.86864176
5197.28491383
5198.7492525
5200.25351724
5201.78902326
5203.34657203
5204.91649455
5206.48870682
5208.05277718
5209.59800484
5211.11350911
5212.58832838
5214.01152881
5215.37232106
5216.66019014
5217.86503229
5218.97730463
5219.98828265
5220.8898942
5221.67639671
5222.33988877
5222.88422972
5223.28727992
5223.59216882
5223.70342372
5185.50338702
5185.49949672
5185.63623094
5185.88033609
5186.26513059
5186.77371893
5187.40391822
5188.14669611
5188.99666944
5189.94809928
5190.99601205
5192.13528578
5193.36062411
5194.66631527
5196.04615344
5197.49336515
5199.00057402
5200.55978373
5202.16237902
5203.79914207
5205.46028341
5207.13548692
5208.81396837
5210.48454724
5212.13573089
5213.75581043
5215.33296714
5216.8553889
5218.31139498
5219.68957296
5220.97892319
5222.16900887
5223.25023067
5224.21361172
5225.05262972
5225.75831071
5226.3344739
5226.75704217
5227.07348721
5227.18326873
5186.4853676
5186.4829739
5186.63017961
5186.8906465
5187.2999112
5187.84009223
5188.50910803
5189.29757687
5190.19996357
5191.21034402
5192.32358379
5193.53438347
5194.8372461
5196.22622318
5197.69482789
5199.23595452
5200.84183764
5202.50403113
5204.21340641
5205.96016772
5207.73388328
5209.52353219
5211.31756648
5213.10398783
5214.87043808
5216.6043026
5218.29282501
5219.9232325
5221.48286947
5222.95934239
5224.34067242
5225.61544481
5226.77310038
5227.80366306
5228.69973632
5229.45113286
5230.06157915
5230.50481534
5230.83311578
5230.94050279
5187.52209768
5187.5213028
5187.67976692
5187.9578043
5188.39334959
5188.96745451
5189.67815182
5190.51568749
5191.47436918
5192.54808035
5193.73152101
5195.01920843
5196.40543735
5197.88401163
5199.44814864
5201.09039063
5202.80255799
5204.57572357
5206.40020803
5208.26559355
5210.16075541
5212.07391091
5213.99268527
5215.90419375
5217.79513935
5219.65192431
5221.46077424
5223.2078731
5224.8795066
5226.46221546
5227.94295619
5229.30924829
5230.54948124
5231.65257543
5232.61015184
5233.41065203
5234.05764304
5234.52243079
5234.86258582
5234.96639305
5188.60850531
5188.60940674
5188.77988773
5189.07665602
5189.54022133
5190.15049147
5190.90562807
5191.79548416
5192.81420656
5193.95548056
5195.21383725
5196.5836062
5198.05886762
5199.6331685
5201.29941702
5203.04978528
5204.87565582
5206.76759077
5208.71532379
5210.7077722
5212.73306882
5214.77861312
5216.83114131
5218.87681452
5220.90132421
5222.89001283
5224.82800808
5226.7003685
5228.49223725
5230.18900398
5231.77647335
5233.24100803
5234.56984903
5235.75070025
5236.77407958
5237.62688461
5238.31244266
5238.79936835
5239.15105174
5239.24981376
5189.73908052
5189.74177023
5189.92499259
5190.24159501
5190.73483457
5191.38340177
5192.18560301
5193.1308799
5194.21321633
5195.42609523
5196.76387699
5198.22070068
5199.79042747
5201.46633987
5203.24102535
5205.10626954
5207.0529952
5209.07122578
5211.15007346
5213.27774952
5215.44159638
5217.62814122
5219.82317051
5222.01182491
5224.17871303
5226.30804211
5228.38376325
5230.38972832
5232.30985469
5234.12829561
5235.82961582
5237.39892774
5238.82222228
5240.08586672
5241.1791442
5242.08722164
5242.8130923
5243.32241716
5243.6849545
5243.77691288
5190.90787082
5190.91243367
5191.10908039
5191.44655109
5191.97101587
5192.6598788
5193.51160778
5194.51521673
5195.66452609
5196.95281385
5198.37426952
5199.92284054
5201.59216625
5203.375259
5205.26437596
5207.25090191
5209.32528004
5211.47696921
5213.69442781
5215.96512203
5218.27555817
5220.61133874
5222.95724199
5225.29732391
5227.61504114
5229.8933924
5232.1150755
5234.26265622
5236.31874442
5238.26617269
5240.08817793
5241.7685278
5243.29185832
5244.64307423
5245.81008229
5246.77611932
5247.54373529
5248.07537032
5248.44771999
5248.53081606
5192.10848125
5192.11499516
5192.32569947
5192.68498991
5193.24210687
5193.97310421
5194.8766284
5195.94125167
5197.16063178
5198.52784092
5200.03689905
5201.68156261
5203.45524813
5205.35069409
5207.35981988
5209.47359732
5211.68197257
5213.97381651
5216.33690404
5218.75791998
5221.22249156
5223.7152473
5226.21990175
5228.71936515
5231.19587615
5233.63115475
5236.00657181
5238.3033306
5240.50265437
5242.58597305
5244.5351092
5246.33239156
5247.96099476
5249.40423076
5250.64847961
5251.67483695
5252.48528449
5253.03877056
5253.41951097
5253.49138599
5193.33409327
5193.34262652
5193.56795975
5193.94992191
5194.54097096
5195.31575231
5196.2731075
5197.40115511
5198.69339232
5200.1426861
5201.74288985
5203.48757126
5205.36992505
5207.38241413
5209.51661491
5211.7630766
5214.1112336
5216.54934841
5219.06448586
5221.64251654
5224.26814939
5226.9249934
5229.59564797
5232.26182069
5234.90447048
5237.50397272
5240.040302
5242.49322678
5244.84250865
5247.06809641
5249.15031476
5251.06996111
5252.8086417
5254.3479426
5255.67255954
5256.7612265
5257.61521603
5258.18971178
5258.57703974
5258.63504639
5194.57745609
5194.58808263
5194.82854355
5195.23391577
5195.8600075
5196.68000392
5197.69295671
5198.88652114
5200.254037
5201.78816828
5203.48260622
5205.33073385
5207.32552693
5209.4591733
5211.72290359
5214.10683756
5216.59988615
5219.18968646
5221.86257052
5224.603566
5227.39642882
5230.22370783
5233.06684099
5235.90628174
5238.72165308
5241.49192556
5244.19561388
5246.81098508
5249.31626949
5251.68986133
5253.91050791
5255.95738687
5257.81043091
5259.44936604
5260.85703942
5262.00959245
5262.90743492
5263.50171588
5263.89345948
5263.93468742
5195.83100955
5195.84376441
5196.09974228
5196.52912823
5197.19117949
5198.05757258
5199.12758157
5200.38839082
5201.83318691
5203.45443454
5205.24566879
5207.20009376
5209.31047106
5211.56871624
5213.96571393
5216.49115058
5219.13340543
5221.8794771
5224.71494655
5227.62397479
5230.58933555
5233.59248288
5236.61365344
5239.63200177
5242.62576582
5245.57245832
5248.44907776
5251.23233043
5253.89885259
5256.42541852
5258.78912433
5260.96744157
5262.93852519
5264.6801093
5266.17302429
5267.39058797
5268.33218016
5268.94465158
5269.3383054
5269.35963933
5197.0867036
5197.10161433
5197.37344487
5197.82732465
5198.52604537
5199.43973996
5200.56791789
5201.89728844
5203.42089046
5205.13099473
5207.02098762
5209.08390183
5211.31229161
5213.69780527
5216.23098406
5218.90108044
5221.69593754
5224.60190683
5227.60380508
5230.68490877
5233.82698671
5237.01037071
5240.21406401
5243.41588574
5246.5926483
5249.72036258
5252.77446343
5255.73004738
5258.56210231
5261.24571854
5263.75627633
5266.06946559
5268.16156961
5270.00820027
5271.58799986
5272.87122713
5273.85604818
5274.4847644
5274.87752153
5274.87570211
5198.33623345
5198.35331939
5198.64125644
5199.11995209
5199.85581727
5200.81740864
5202.00448314
5203.4032727
5205.00667479
5206.80677306
5208.79681408
5210.96966834
5213.31769157
5215.83227232
5218.50361392
5221.32053763
5224.27035016
5227.33875219
5230.50978884
5233.76584087
5237.08765704
5240.45442779
5243.84389992
5247.2325305
5250.59567639
5253.90781312
5257.14277676
5260.27400554
5263.2747952
5266.11851211
5268.77877102
5271.2294136
5273.44476058
5275.39817557
5277.06594001
5278.41501233
5279.44214036
5280.08486512
5280.47374153
5280.44551092
5199.57115286
5199.59040867
5199.89455287
5200.39820174
5201.17142097
5202.18116407
5203.42744001
5204.89600215
5206.57961297
5208.4701771
5210.56081162
5212.84423583
5215.31261778
5217.95709618
5220.76754484
5223.73236022
5226.83831681
5230.07046605
5233.41208044
5236.84464119
5240.34787034
5243.89980742
5247.47693035
5251.05431901
5254.60585686
5258.10445865
5261.52232702
5264.83122501
5268.00273513
5271.00846434
5273.82021545
5276.40993088
5278.74989772
5280.81112767
5282.56738275
5283.98208952
5285.05028622
5285.70436741
5286.0857566
5286.02760639
5200.78270172
5200.80412033
5201.12447607
5201.65304348
5202.46355511
5203.52134429
5204.82667259
5206.36481568
5208.12840816
5210.10918548
5212.30014725
5214.69387453
5217.28236066
5220.05650693
5223.00586895
5226.11842853
5229.38043662
5232.77630273
5236.28853248
5239.89771185
5243.5825389
5247.31990336
5251.08501394
5254.85157156
5258.5919696
5262.27755135
5265.87889117
5269.36606613
5272.70891914
5275.87727996
5278.84111847
5281.57044239
5284.03544814
5286.20471213
5288.04935336
5289.52913921
5290.63732771
5291.30130812
5291.67280858
5291.58167812
5201.96201657
5201.98557979
5202.32204169
5202.87531646
5203.72277803
5204.82812941
5206.19187966
5207.79882999
5209.64149537
5211.71145427
5214.00160312
5216.50439984
5219.21167825
5222.11411702
5225.20096784
5228.45981161
5231.87638901
5235.43448067
5239.11583828
5242.90016547
5246.76514929
5250.68654282
5254.63829886
5258.59273482
5262.52076757
5266.39219144
5270.17594853
5273.84042691
5277.35373948
5280.68393718
5283.79914534
5286.66741119
5289.25678881
5291.53333192
5293.46536109
5295.00878045
5296.15475107
5296.82549907
5297.18392946
5297.05731366
5203.10017377
5203.12585719
5203.47821667
5204.05581686
5204.93960463
5206.09164567
5207.5126848
5209.18705487
5211.10716197
5213.26444334
5215.65170944
5218.26131277
5221.0849451
5224.11307953
5227.33468069
5230.73694565
5234.30512257
5238.02238196
5241.86974175
5245.82604518
5249.86799228
5253.97022539
5258.10545287
5262.24463939
5266.35726516
5270.41158329
5274.37492932
5278.21403359
5281.89530139
5285.38502349
5288.64949205
5291.654792
5294.36680787
5296.74900392
5298.76676315
5300.37189087
5301.55317255
5302.22734409
5302.56916323
5302.40427077
5204.18827448
5204.21605579
5204.5840166
5205.18540452
5206.10462147
5207.3020875
5208.77876391
5210.5185258
5212.51368563
5214.75556053
5217.23689629
5219.94996077
5222.88632321
5226.03627004
5229.38849787
5232.9298398
5236.64507318
5240.51678257
5244.52527948
5248.64857791
5252.86242585
5257.14038382
5261.45395476
5265.77280831
5270.06501224
5274.29732732
5278.43553447
5282.44475443
5286.28973538
5289.93505632
5293.34522017
5296.48438523
5299.31628483
5301.80178659
5303.90329482
5305.5684551
5306.78365452
5307.46006505
5307.78383801
5307.57888108
5205.21753167
5205.24740524
5205.63061572
5206.2551292
5207.20862595
5208.44986476
5209.97999765
5211.78246026
5213.84949513
5216.17232843
5218.74366808
5221.55572129
5224.59995606
5227.86649214
5231.34377821
5235.01830532
5238.87440484
5242.89410434
5247.05704303
5251.34044528
5255.7191504
5260.16567766
5264.65039716
5269.14172805
5273.6063887
5278.00971874
5282.31601499
5286.48886823
5290.49145184
5294.28671706
5297.83746251
5301.10600273
5304.05399045
5306.63973931
5308.8226519
5310.5460922
5311.79375566
5312.47091686
5312.77500037
5312.52878164
5206.17933803
5206.21134423
5206.60945805
5207.2563673
5208.24278073
5209.52576612
5211.10663877
5212.9684278
5215.10334439
5217.50256473
5220.15879263
5223.06420169
5226.21018059
5229.58670192
5233.18198633
5236.9822052
5240.97127076
5245.1306864
5249.43945865
5253.87407125
5258.40849786
5263.01429267
5267.66076066
5272.31513954
5276.9428856
5281.50800465
5285.9734086
5290.30126907
5294.45330066
5298.39094697
5302.07542748
5305.46734052
5308.52637748
5311.20839104
5313.46980926
5315.24965544
5316.52872106
5317.20616171
5317.49023941
5317.20269834
5207.06539563
5207.09966523
5207.51243154
5208.18101948
5209.19882225
5210.52116705
5212.1495143
5214.06654617
5216.26450528
5218.73457474
5221.46949567
5224.46143682
5227.70172783
5231.1802109
5234.88489595
5238.80165578
5242.91401063
5247.20297478
5251.64696695
5256.22177915
5260.90058443
5265.65405825
5270.4505131
5275.25610669
5280.03513094
5284.75037041
5289.36347822
5293.83535446
5298.12640816
5302.19673822
5306.00616477
5309.51376982
5312.67749863
5315.45095719
5317.78776421
5319.62264869
5320.9332837
5321.61223659
5321.87773503
5321.54998064
5207.86774143
5207.90460807
5208.33204492
5209.02174979
5210.06933003
5211.42830734
5213.10030427
5215.06776336
5217.32305923
5219.8574587
5222.66378838
5225.73423915
5229.06009634
5232.63108208
5236.43500718
5240.45746275
5244.68160211
5249.0879853
5253.65449087
5258.3562708
5263.16578094
5268.0528995
5272.98505171
5277.92742806
5282.84327022
5287.69427932
5292.4410043
5297.04326674
5301.46036272
5305.65125928
5309.5746259
5313.18832402
5316.44890254
5319.30810648
5321.7171219
5323.60659897
5324.95093991
5325.63531937
5325.88645794
5325.52131945
5208.57884034
5208.61899801
5209.06159096
5209.77213152
5210.84781676
5212.24031286
5213.9515
5215.96376237
5218.26975628
5220.86092704
5223.73023581
5226.86991355
5230.27120442
5233.92370931
5237.81504182
5241.93052097
5246.25295347
5250.76247851
5255.43647824
5260.24952735
5265.17345168
5270.17742528
5275.22811326
5280.28987187
5285.3250192
5290.29434057
5295.15746332
5299.87338253
5304.40051028
5308.69695026
5312.72054982
5316.42836255
5319.77606615
5322.71418188
5325.19219177
5327.13720428
5328.52040771
5329.21827357
5329.46361261
5329.06631725
5209.1921494
5209.23711366
5209.69623171
5210.42788281
5211.53003679
5212.95256158
5214.69784677
5216.74850961
5219.09769706
5221.73713767
5224.65996629
5227.85845281
5231.32378391
5235.04542078
5239.01076734
5243.20486864
5247.61019587
5252.20649476
5256.97069144
5261.8768507
5266.8962491
5271.99746627
5277.14654985
5282.30718411
5287.44088354
5292.50772643
5297.46662681
5302.27608612
5306.89387613
5311.27756251
5315.38458039
5319.1717161
5322.59451879
5325.6032753
5328.14706559
5330.15065531
5331.58276889
5332.30948393
5332.56595015
5332.14688992
5209.70027001
5209.752829
5210.23081339
5210.98419015
5212.11080739
5213.55907928
5215.33238755
5217.41397575
5219.79771952
5222.47570905
5225.44125789
5228.68663885
5232.20293685
5235.97943236
5240.00328949
5244.25926338
5248.72949014
5253.39334168
5258.22732607
5263.20506551
5268.29737233
5273.47235278
5278.69560517
5283.93037653
5289.13746585
5294.27650257
5299.30591632
5304.18416488
5308.86860551
5313.31665653
5317.48581216
5321.33322323
5324.81522949
5327.88319835
5330.48778042
5332.55351598
5334.04875201
5334.82764886
5335.1228448
5334.7000921
5210.10218855
5210.16822897
5210.66900333
5211.44544731
5212.59435475
5214.0636406
5215.85846791
5217.96318145
5220.37261703
5223.07924662
5226.07652009
5229.35663867
5232.91051516
5236.72718894
5240.79353881
5245.09400072
5249.61036446
5254.32163488
5259.20393603
5264.23050552
5269.37177087
5274.59547112
5279.86690262
5285.14924487
5290.40249953
5295.58618617
5300.65856918
5305.57856786
5310.30323776
5314.79028669
5318.99772658
5322.88370492
5326.40633036
5329.51958547
5332.17837334
5334.31049671
5335.88852097
5336.75553279
5337.1362579
5336.74644853
5210.38566545
5210.47267183
5210.99884646
5211.79742472
5212.96385813
5214.44721539
5216.25524706
5218.37364333
5220.79822644
5223.52171629
5226.53757638
5229.83781948
5233.4130962
5237.25213381
5241.34147374
5245.66519857
5250.20473792
5254.93873829
5259.84298051
5264.89038178
5270.0510875
5275.29259849
5280.5799871
5285.87708279
5291.14297997
5296.33714944
5301.41834943
5306.34634229
5311.07804001
5315.57192419
5319.78688214
5323.68248915
5327.21925977
5330.35484978
5333.05078744
5335.2419393
5336.91223606
5337.89971437
5338.42196919
5338.12880227
5210.57445243
5210.69835644
5211.25236392
5212.07234828
5213.25203971
5214.74411045
5216.55955652
5218.68543148
5221.1184156
5223.85128531
5226.87739935
5230.18849707
5233.77491737
5237.62504402
5241.72506393
5246.05870024
5250.60702861
5255.3483568
5260.25816372
5265.30910235
5270.47111627
5275.71157376
5280.99524795
5286.28682665
5291.54509227
5296.72902144
5301.79860108
5306.71431513
5311.43314798
5315.91454961
5320.11834409
5324.00556896
5327.53917757
5330.68065992
5333.39921385
5335.6395377
5337.4034137
5338.53579586
5339.24560613
5339.12801863
5210.634796
5210.79318796
5211.36130811
5212.19132098
5213.37280779
5214.864329
5216.67839733
5218.80249624
5221.2334618
5223.96385537
5226.98682232
5230.293821
5233.87490634
5237.71816575
5241.80948953
5246.13230971
5250.66742706
5255.39290326
5260.28402561
5265.31331874
5270.45067219
5275.66349363
5280.91660771
5286.17517716
5291.39815998
5296.54568564
5301.57694325
5306.45398172
5311.13431226
5315.57822712
5319.74631205
5323.60053733
5327.10519762
5330.22373382
5332.93001977
5335.17603105
5336.98187381
5338.21794916
5339.11266639
5339.24017996
5016.0996171
5016.15023874
5016.29288307
5016.49501951
5016.77503166
5017.12387324
5017.54367017
5018.03044933
5018.58238576
5019.19626109
5019.86906699
5020.59730978
5021.37726913
5022.20487906
5023.0757561
5023.98518687
5024.92813662
5025.89925881
5026.89291506
5027.90318537
5028.92393861
5029.94877785
5030.97116324
5031.98443374
5032.98180577
5033.95645859
5034.9015739
5035.81038832
5036.67624036
5037.49262823
5038.25323622
5038.95202487
5039.58317624
5040.14120119
5040.62108033
5041.01709023
5041.32724279
5041.54138817
5041.67373455
5041.70234214
5016.15718469
5016.19378217
5016.32466816
5016.52042915
5016.79676086
5017.14420281
5017.56363138
5018.05076858
5018.60340631
5019.21823746
5019.8921574
5020.62164342
5021.40294833
5022.23199186
5023.1043779
5024.01538224
5024.95995955
5025.93275339
5026.92811531
5027.94012363
5028.96262701
5029.98922878
5031.01334577
5032.02833176
5033.02739583
5034.00371143
5034.95045688
5035.86087108
5036.72830457
5037.54628175
5038.30854378
5039.00915198
5039.64250481
5040.20350083
5040.68793119
5041.09147316
5041.41464055
5041.64936614
5041.81058901
5041.86065088
5016.32173293
5016.34715774
5016.46930538
5016.65803438
5016.93074713
5017.27803711
5017.69984454
5018.19131744
5018.74967249
5019.37133981
5020.05302077
5020.79109385
5021.5817378
5022.42081794
5023.30388786
5024.22617343
5025.18257635
5026.16768296
5027.17578144
5028.20088113
5029.23674366
5030.2768988
5031.31470338
5032.34339579
5033.35610741
5034.34592765
5035.30595626
5036.22936449
5037.1094567
5037.93974585
5038.71402338
5039.42649042
5040.07185281
5040.64550937
5041.14408674
5041.56409812
5041.90680366
5042.16209611
5042.34085145
5042.39862233
5016.55655447
5016.57623105
5016.6915744
5016.8753592
5017.14634981
5017.49552344
5017.92220983
5018.42103586
5018.98867206
5019.62124322
5020.31522881
5021.06687605
5021.8722642
5022.72717871
5023.62709745
5024.56716885
5025.54221136
5026.54672024
5027.57488293
5028.62059926
5029.67751023
5030.73902617
5031.79837204
5032.84864086
5033.88282493
5034.89387537
5035.87475974
5036.81852917
5037.71839066
5038.56779629
5039.36053706
5040.09089664
5040.75380146
5041.34499194
5041.8616259
5042.30045649
5042.66279329
5042.93564829
5043.12799689
5043.1849739
5016.88250797
5016.8989089
5017.01095091
5017.19317466
5017.46583606
5017.82028565
5018.25557156
5018.76591422
5019.34754809
5019.99630716
5020.70845314
5021.48008525
5022.3071633
5023.18536758
5024.11007156
5025.07631341
5026.07879108
5027.11186679
5028.1695809
5029.24567249
5030.33360785
5031.42661324
5032.51771827
5033.59980466
5034.66565198
5035.70799687
5036.71959654
5037.69330172
5038.62213815
5039.4994067
5040.3187933
5041.07453343
5041.76158711
5042.37576249
5042.9143341
5043.37377814
5043.75498946
5044.04249194
5044.24460162
5044.30124054
5017.28941572
5017.30469108
5017.4169072
5017.6012541
5017.87931334
5018.24268709
5018.6903606
5019.21627475
5019.81635968
5020.48621139
5021.22190249
5022.01938572
5022.87449232
5023.78277966
5024.73949338
5025.73953295
5026.77744279
5027.84741442
5028.94329916
5030.05862871
5031.18664377
5032.32032904
5033.45245634
5034.57563439
5035.68236125
5036.76508649
5037.81627979
5038.82850925
5039.79452933
5040.70738763
5041.56054244
5042.34802728
5043.06463072
5043.70596445
5044.26909381
5044.74993038
5045.14886941
5045.44852064
5045.65763507
5045.71300932
5017.77975419
5017.7948309
5017.90972078
5018.09921725
5018.38608457
5018.76195607
5019.2258498
5019.77149328
5020.39460373
5021.09058344
5021.85534138
5022.68468752
5023.57431734
5024.51964921
5025.51577867
5026.55743868
5027.63898713
5028.75440689
5029.89731717
5031.06099404
5032.23839935
5033.42221714
5034.60489806
5035.77871084
5036.93579967
5038.06824991
5039.16816133
5040.22773097
5041.23934571
5042.19569267
5043.08987908
5043.91559183
5044.66727483
5045.34014883
5045.93087675
5046.43470255
5046.8516438
5047.16294009
5047.37861171
5047.43329241
5018.34930318
5018.36485956
5018.48436458
5018.68151356
5018.98018729
5019.37185572
5019.85561059
5020.42499414
5021.07556691
5021.80256758
5022.60175932
5023.46881169
5024.39927748
5025.3884214
5026.43116813
5027.52205789
5028.65523064
5029.82442394
5031.02298313
5032.24388152
5033.4797497
5034.72291328
5035.965439
5037.19918867
5038.41588056
5039.60715893
5040.76467167
5041.88015723
5042.94554096
5043.95304758
5044.89532175
5045.76558162
5046.55779507
5047.26666144
5047.88833804
5048.41736829
5048.85352968
5049.17694918
5049.39945295
5049.45339734
5018.99625802
5019.01260653
5019.13810958
5019.34487908
5019.65793259
5020.06841043
5020.57548367
5021.17250374
5021.85489791
5022.61775338
5023.45669455
5024.36724864
5025.34481701
5026.3844959
5027.48101885
5028.6287078
5029.821454
5031.05271362
5032.31551662
5033.60248659
5034.90587041
5036.21757734
5037.52922719
5038.83220708
5040.11773668
5041.37694185
5042.60093675
5043.78091505
5044.9082499
5045.9746089
5046.97207581
5047.89330019
5048.7316773
5049.48130075
5050.137773
5050.69493008
5051.15243301
5051.48937396
5051.7197624
5051.77318638
5019.71734491
5019.73472685
5019.86737627
5020.08545631
5020.415201
5020.847296
5021.38099292
5022.00943492
5022.72792251
5023.53139283
5024.41533157
5025.37511824
5026.4059928
5027.50286802
5028.66026645
5029.87226681
5031.13248153
5032.4340499
5033.76964552
5035.13149552
5036.51141079
5037.90082646
5039.29085227
5040.67233262
5042.03591578
5043.37213216
5044.67148127
5045.92452777
5047.12200592
5048.25493789
5049.3147585
5050.29346328
5051.18379715
5051.97918161
5052.67462641
5053.26323246
5053.74461346
5054.09676327
5054.33618206
5054.38908286
5020.50952483
5020.52809321
5020.66886864
5020.89975748
5021.24832335
5021.7046963
5022.26820911
5022.93177308
5023.69055888
5024.5393484
5025.4734841
5026.48819033
5027.57853474
5028.73923166
5029.96457318
5031.24837048
5032.58392765
5033.9640321
5035.38096031
5036.82649653
5038.29196339
5039.76826386
5041.2459343
5042.71520802
5044.16608894
5045.58843509
5046.97205107
5048.30678983
5049.58266268
5050.78996237
5051.91939253
5052.96221642
5053.91045778
5054.7568024
5055.49562375
5056.11923474
5056.62723461
5056.99639316
5057.24601313
5057.29833483
5021.36923818
5021.3891234
5021.53893073
5021.78402779
5022.15343799
5022.63665155
5023.23308694
5023.93539969
5024.73862414
5025.63737905
5026.62685723
5027.70211952
5028.85805027
5030.08915079
5031.38946384
5032.75250945
5034.17125444
5035.63809992
5037.14488498
5038.6829047
5040.24294123
5041.81530738
5043.38990262
5044.9562806
5046.50372791
5048.02135328
5049.49818665
5050.92328753
5052.28586175
5053.57539059
5054.78176656
5055.89544366
5056.9076526
5057.81027316
5058.59698465
5059.25923302
5059.79660911
5060.18450592
5060.44537609
5060.49692979
5022.29265727
5022.31396718
5022.47366124
5022.73429824
5023.12649888
5023.63903837
5024.27142816
5025.01604494
5025.86777946
5026.8210786
5027.8709787
5029.01236879
5030.23993944
5031.54796503
5032.93022098
5034.37991332
5035.88964362
5037.4513928