/*--------------------------------*- C++ -*----------------------------------*\
| =========                 |                                                 |
| \\      /  F ield         | foam-extend: Open Source CFD                    |
|  \\    /   O peration     | Version:     4.1                                |
|   \\  /    A nd           | Web:         http://www.foam-extend.org         |
|    \\/     M anipulation  |                                                 |
\*---------------------------------------------------------------------------*/
FoamFile
{
    version     2.0;
    format      ascii;
    class       volScalarField;
    location    "0.2";
    object      pd;
}
// * * * * * * * * * * * * * * * * * * * * * * * * * * * * * * * * * * * * * //

dimensions      [1 -1 -2 0 0 0 0];

internalField   nonuniform List<scalar> 
96000
(
5260.93860431
5260.98087563
5261.11745141
5261.3161197
5261.59417729
5261.9417858
5262.36072876
5262.84680232
5263.39810005
5264.01134225
5264.68349474
5265.41104393
5266.19025932
5267.01706862
5267.8870856
5268.79559635
5269.73756733
5270.70765455
5271.7002241
5272.70935845
5273.72893472
5274.75256614
5275.77372099
5276.78573649
5277.78184311
5278.75523195
5279.69909607
5280.60668519
5281.47135362
5282.28661996
5283.04619661
5283.74408741
5284.37454958
5284.93222517
5285.41239573
5285.80983088
5286.1238312
5286.34560825
5286.49295476
5286.54173697
5260.98822527
5261.00874497
5261.12945856
5261.3185628
5261.59221078
5261.93814514
5262.3567399
5262.84319305
5263.39522748
5264.00944273
5264.68272235
5265.41152407
5266.19209692
5267.02035753
5267.89191034
5268.80203301
5269.7456834
5270.71750907
5271.71186637
5272.72283936
5273.74428301
5274.76981323
5275.79284085
5276.80673232
5277.80470392
5278.77993755
5279.72561987
5280.63499953
5281.50143825
5282.31847517
5283.07987042
5283.779716
5284.41246253
5284.97309007
5285.45765489
5285.86213589
5286.18874667
5286.43049852
5286.61265579
5286.69518295
5261.14700231
5261.15220058
5261.25835469
5261.43707294
5261.7056843
5262.05091201
5262.47167981
5262.96233835
5263.51996935
5264.14088271
5264.82176782
5265.55898493
5266.34871265
5267.18681631
5268.06885311
5268.99005355
5269.945325
5270.92926018
5271.93615426
5272.96002394
5273.99463908
5275.03353658
5276.07007943
5277.09751465
5278.10898145
5279.09757755
5280.05641094
5280.97866189
5281.85764455
5282.68688423
5283.46018709
5284.17177773
5284.81640688
5285.38954721
5285.8881625
5286.30926232
5286.65669987
5286.92256954
5287.13171749
5287.22948166
5261.37848231
5261.37439392
5261.47028147
5261.64169496
5261.90742762
5262.25399683
5262.67934765
5263.1771093
5263.7437573
5264.37527722
5265.06813602
5265.81856465
5266.62264523
5267.47616598
5268.37461115
5269.31313654
5270.28656907
5271.28941327
5272.3158665
5273.35983898
5274.41498248
5275.47471828
5276.53228118
5277.58077591
5278.61320573
5279.62253301
5280.60173647
5281.5438786
5282.44217789
5283.29009928
5284.08144748
5284.81052621
5285.47230726
5286.06261507
5286.57904819
5287.01909584
5287.38744119
5287.6743036
5287.9043638
5288.01299188
5261.70254221
5261.6943268
5261.78542816
5261.95410476
5262.22085348
5262.57237621
5263.006155
5263.51530255
5264.09581844
5264.74338512
5265.45425005
5266.22449689
5267.05008959
5267.92671257
5268.84974696
5269.81423968
5270.81489856
5271.84609647
5272.90188512
5273.97601537
5275.06196562
5276.15297436
5277.24208337
5278.32218685
5279.38607668
5280.42650179
5281.43623147
5282.40812849
5283.33523037
5284.21085051
5285.02868771
5285.78299563
5286.46878261
5287.08195093
5287.62028896
5288.08114388
5288.46918961
5288.77245191
5289.01562512
5289.1273189
5262.10822146
5262.09851521
5262.1891801
5262.3594107
5262.63122669
5262.99148843
5263.43754032
5263.962161
5264.56102729
5265.22957763
5265.96386986
5266.75984168
5267.6133293
5268.51989502
5269.47479312
5270.47293278
5271.50886932
5272.57680605
5273.67060669
5274.78381586
5275.90968751
5277.04121969
5278.17119757
5279.29224328
5280.3968681
5281.47753464
5282.52672529
5283.53702059
5284.50118692
5285.41228413
5286.26378274
5287.049733
5287.76497338
5288.40521256
5288.96806871
5289.4503742
5289.8565113
5290.17267007
5290.42449839
5290.53700102
5262.59769118
5262.58775391
5262.68084497
5262.85590413
5263.13634671
5263.50898837
5263.97118088
5264.51545812
5265.13727658
5265.83187742
5266.59515473
5267.42290361
5268.31082501
5269.25434283
5270.24856192
5271.28822573
5272.36770395
5273.48099204
5274.62172254
5275.78318528
5276.95835615
5278.13993333
5279.3203815
5280.49198333
5281.64689665
5282.77722009
5283.87506626
5284.93264458
5285.94235362
5286.8968922
5287.78937926
5288.61351704
5289.36380011
5290.03554399
5290.62598217
5291.13127768
5291.55553655
5291.88351819
5292.14262734
5292.25524785
5263.16650526
5263.15701934
5263.25455539
5263.43699098
5263.72909806
5264.11743353
5264.59941311
5265.16735852
5265.81656673
5266.54211189
5267.33974265
5268.20511391
5269.13378443
5270.1210251
5271.16177071
5272.25057284
5273.38158418
5274.54855592
5275.74484767
5276.96344743
5278.19700068
5279.4378479
5280.67807047
5281.9095446
5283.12400246
5284.31310169
5285.46850297
5286.58195689
5287.64540003
5288.6510683
5289.59161744
5290.46027979
5291.25107412
5291.9587902
5292.58016473
5293.11063603
5293.55413623
5293.89420371
5294.16058989
5294.27314466
5263.81278323
5263.80407681
5263.90745036
5264.09921501
5264.40556028
5264.81259907
5265.31782183
5265.91333046
5266.59428662
5267.35560958
5268.19290958
5269.1016993
5270.07738685
5271.11507543
5272.20950971
5273.35502406
5274.54552359
5275.77447923
5277.03493636
5278.31953428
5279.62053567
5280.92986542
5282.23915855
5283.53981688
5284.82307406
5286.08006923
5287.30192892
5288.47985837
5289.60524135
5290.66975571
5291.66549553
5292.58512307
5293.42208439
5294.17055674
5294.82672695
5295.38528673
5295.85010014
5296.20351334
5296.47806022
5296.59059128
5264.53318876
5264.52548353
5264.63582376
5264.83857186
5265.16145458
5265.58999568
5266.12176267
5266.74861593
5267.46558834
5268.26744537
5269.14965902
5270.10759463
5271.13649987
5272.23129559
5273.38651673
5274.59625583
5275.8541406
5277.15332652
5278.48650392
5279.8459169
5281.22339318
5282.61038429
5283.99801572
5285.37714676
5286.73843958
5288.0724374
5289.36965142
5290.62065688
5291.81619744
5292.94730424
5294.00542101
5294.98255401
5295.87149819
5296.66574958
5297.36090403
5297.95086609
5298.43949009
5298.80782078
5299.09154759
5299.20396234
5265.32465639
5265.31810054
5265.43636801
5265.65156117
5265.99309739
5266.44579235
5267.00729158
5267.66918595
5268.42637654
5269.2734691
5270.20579322
5271.21855969
5272.30684522
5273.46537369
5274.6884512
5275.96990451
5277.30305476
5278.68070728
5280.09515696
5281.53820642
5283.00119631
5284.47504684
5285.95031058
5287.41723575
5288.86583978
5290.28599264
5291.66750937
5293.00025192
5294.27423916
5295.47977064
5296.60755686
5297.64886869
5298.59577816
5299.44103387
5300.17959342
5300.80450652
5301.31963668
5301.7045461
5301.99844861
5302.11051193
5266.18360417
5266.17832498
5266.30540842
5266.53441099
5266.89661055
5267.37601336
5267.97034766
5268.67090679
5269.4724535
5270.36942562
5271.35700422
5272.43023756
5273.58402078
5274.81286662
5276.11083398
5277.47146063
5278.88773271
5280.35207138
5281.85633611
5283.39184211
5284.94939086
5286.51931335
5288.09152561
5289.65559597
5291.20082367
5292.71632801
5294.19114737
5295.61434784
5296.97514003
5298.26300893
5299.46785082
5300.58012298
5301.59110093
5302.49271249
5303.27921459
5303.94270508
5304.48704307
5304.8900893
5305.19497429
5305.30623757
5267.10619184
5267.10230224
5267.23904388
5267.4831553
5267.86795235
5268.37654047
5269.00673851
5269.74951533
5270.59948818
5271.55091801
5272.59883096
5273.73810485
5274.96344327
5276.26913445
5277.64897262
5279.09618434
5280.60339321
5282.1626029
5283.76519816
5285.40196116
5287.06310246
5288.73830594
5290.41678735
5292.0873662
5293.73854986
5295.35862945
5296.93578619
5298.45820798
5299.91421399
5301.29239172
5302.58174163
5303.77182704
5304.85304868
5305.81642966
5306.65544716
5307.36112652
5307.93728669
5308.35985092
5308.67629191
5308.78608191
5268.08817246
5268.08577951
5268.23299272
5268.49346593
5268.90273318
5269.44291397
5270.1119285
5270.90039626
5271.80278248
5272.81316293
5273.92640291
5275.13720276
5276.44006548
5277.82904257
5279.29764729
5280.8387739
5282.44465702
5284.10685049
5285.81622574
5287.56298697
5289.33670244
5291.12635125
5292.92038546
5294.70680672
5296.47325692
5298.20712144
5299.89564389
5301.5260514
5303.0856883
5304.56216094
5305.94349059
5307.21826259
5308.37591792
5309.40648042
5310.30255309
5311.05394794
5311.66439116
5312.10762323
5312.43591948
5312.54331515
5269.12490256
5269.12410851
5269.28258021
5269.56062397
5269.99617181
5270.57027647
5271.28097248
5272.11850705
5273.07718826
5274.15089945
5275.33434032
5276.62202792
5278.00825692
5279.48683122
5281.05096821
5282.69321019
5284.40537752
5286.17854306
5288.00302742
5289.8684128
5291.76357453
5293.67672991
5295.59550411
5297.50701246
5299.39795797
5301.25474292
5303.06359287
5304.81069173
5306.48232515
5308.0650337
5309.54577398
5310.9120656
5312.15229818
5313.25539207
5314.21296779
5315.01346622
5315.66045412
5316.12523765
5316.46538837
5316.56920445
5270.21131026
5270.21221262
5270.38270127
5270.67947598
5271.14304385
5271.75331369
5272.50844896
5273.39830394
5274.41702586
5275.55829988
5276.81665679
5278.18642593
5279.66168742
5281.2359883
5282.90223678
5284.65260501
5286.47847549
5288.37041033
5290.31814321
5292.31059145
5294.33588788
5296.38143199
5298.43395998
5300.47963302
5302.5041426
5304.49283117
5306.43082642
5308.30318683
5310.09505547
5311.79182187
5313.37929072
5314.84382481
5316.17266529
5317.35351606
5318.37689459
5319.22969779
5319.91525267
5320.40217406
5320.75385302
5320.85262409
5271.34188563
5271.34457636
5271.52780646
5271.84441533
5272.33765745
5272.98622434
5273.78842421
5274.73369996
5275.81603591
5277.02891484
5278.36669682
5279.82352069
5281.39324753
5283.06915991
5284.84384533
5286.70908943
5288.655815
5290.67404541
5292.75289289
5294.88056872
5297.04441534
5299.23095994
5301.425989
5303.6146432
5305.78153115
5307.91086013
5309.98658125
5311.99254631
5313.91267254
5315.73111313
5317.43243275
5319.00174394
5320.4250378
5321.68868163
5322.78195817
5323.6900337
5324.41590113
5324.92522158
5325.28775439
5325.37972204
5272.51067616
5272.51524015
5272.71189466
5273.04937185
5273.57383919
5274.26270176
5275.11442934
5276.11803714
5277.26734601
5278.5556338
5279.97708969
5281.52566088
5283.19498662
5284.97807932
5286.86719618
5288.85372199
5290.92809995
5293.07978893
5295.29724728
5297.56794122
5299.87837705
5302.21415734
5304.56006032
5306.90014195
5309.21785895
5311.4962101
5313.71789316
5315.86547386
5317.92156192
5319.86898983
5321.69099438
5323.37134338
5324.89467304
5326.24588815
5327.41289513
5328.37893015
5329.14654281
5329.67817334
5330.05051835
5330.13362396
5273.71128692
5273.71780205
5273.92851421
5274.28781117
5274.84493068
5275.57592764
5276.47945039
5277.54407248
5278.7634521
5280.13066127
5281.63971961
5283.28438331
5285.05806886
5286.95351473
5288.96264038
5291.07641763
5293.28479267
5295.57663633
5297.93972354
5300.36073914
5302.82531036
5305.31806575
5307.82271988
5310.32218293
5312.79869369
5315.23397215
5317.60938916
5319.90614792
5322.10547154
5324.1887898
5326.13792517
5327.93520649
5329.56380862
5331.00704362
5332.25129121
5333.27764643
5334.0880906
5334.64157207
5335.0223077
5335.09419256
5274.93689934
5274.94543389
5275.17077503
5275.55274374
5276.14379532
5276.91857625
5277.87592997
5279.00397638
5280.29621309
5281.7455069
5283.34571085
5285.09039238
5286.97274616
5288.98523512
5291.1194357
5293.36589716
5295.71405387
5298.15216835
5300.66730544
5303.24533572
5305.87096815
5308.52781174
5311.19846591
5313.86463828
5316.50728779
5319.10678985
5321.64311906
5324.0960438
5326.44532551
5328.67091279
5330.75313026
5332.6727754
5334.41145468
5335.95075434
5337.27536984
5338.36403457
5339.21802067
5339.79251174
5340.17983487
5340.23785162
5276.18026261
5276.19089055
5276.43135943
5276.83673822
5277.46283247
5278.28282843
5279.2957797
5280.48934292
5281.85685828
5283.39098957
5285.0854277
5286.93355543
5288.92834846
5291.06199466
5293.3257247
5295.70965838
5298.20270663
5300.79250654
5303.46539018
5306.20638521
5308.99924756
5311.82652611
5314.66965882
5317.50909918
5320.32447021
5323.09474246
5325.79843069
5328.41380186
5330.9190861
5333.29267742
5335.51332299
5337.56020054
5339.41324303
5341.05217665
5342.4598484
5343.61239909
5344.5102381
5345.1045143
5345.49625292
5345.53749136
5277.43381659
5277.44657295
5277.70255882
5278.13195135
5278.79400511
5279.66039771
5280.73040515
5281.99121316
5283.43600873
5285.05725636
5286.84849077
5288.80291581
5290.91329303
5293.17153797
5295.56853537
5298.09397166
5300.73622611
5303.48229733
5306.3177663
5309.22679404
5312.19215429
5315.19530112
5318.21647121
5321.23481911
5324.2285828
5327.17527511
5330.05189446
5332.83514707
5335.50166904
5338.02823439
5340.39193906
5342.57025469
5344.54133648
5346.2829188
5347.77583195
5348.9933932
5349.9349819
5350.54744852
5350.94109636
5350.96244215
5278.6895112
5278.70442354
5278.97626213
5279.43014848
5280.12887169
5281.04256574
5282.17074208
5283.50011136
5285.02371284
5286.7338171
5288.62381013
5290.68672437
5292.91511401
5295.30062737
5297.83380581
5300.50390177
5303.29875841
5306.20472721
5309.20662493
5312.28772808
5315.42980549
5318.61318897
5321.81688177
5325.01870304
5328.19546521
5331.32317931
5334.37728005
5337.33286392
5340.16491866
5342.84853425
5345.35909076
5347.67227822
5349.76438008
5351.61100867
5353.19080622
5354.47403099
5355.4588486
5356.08755997
5356.48031209
5356.47850395
5279.93904167
5279.95612931
5280.24407444
5280.72277666
5281.45864429
5282.42023508
5283.60730795
5285.00609622
5286.60949774
5288.40959597
5290.39963709
5292.57249134
5294.92051437
5297.43509478
5300.10643596
5302.92335918
5305.87317121
5308.9415727
5312.11260879
5315.36866027
5318.69047589
5322.05724611
5325.44671774
5328.83534784
5332.1984933
5335.51062987
5338.74559337
5341.87682204
5344.8776115
5347.72132768
5350.38158521
5352.83222569
5355.04757026
5357.0009829
5358.66874512
5360.01781494
5361.04493962
5361.68765964
5362.07653193
5362.04831211
5281.17396172
5281.19321932
5281.49737161
5282.00102705
5282.7742487
5283.78399118
5285.03026544
5286.49882625
5288.18243648
5290.07300054
5292.16363513
5294.44705927
5296.91544096
5299.55991896
5302.37036713
5305.33518199
5308.44113802
5311.6732867
5315.01490052
5318.44746071
5321.95068933
5325.50262589
5329.07974832
5332.65713649
5336.20867389
5339.70727551
5343.12514373
5346.43404156
5349.60555138
5352.61127979
5355.4230294
5358.01274238
5360.35270663
5362.41393393
5364.17018665
5365.584891
5366.65308453
5367.30716132
5367.68854707
5367.63040743
5282.38551122
5282.40693169
5282.72729554
5283.2558695
5284.06638353
5285.12417203
5286.42949862
5287.96764035
5289.73123221
5291.71200943
5293.90297122
5296.29669838
5298.88518419
5301.65932998
5304.60869146
5307.72125048
5310.983258
5314.37912354
5317.89135273
5321.50053157
5325.18535812
5328.9227221
5332.68783219
5336.45438932
5340.19478696
5343.88036838
5347.48170798
5350.96888273
5354.31173536
5357.48009532
5360.44393201
5363.17325323
5365.63825616
5367.80751728
5369.65215607
5371.13193957
5372.24012536
5372.90410187
5373.27559929
5373.18447964
5283.5648267
5283.58839185
5283.92486187
5284.47814313
5285.32560707
5286.43095772
5287.79470623
5289.40165517
5291.2443199
5293.31427868
5295.6044275
5298.10722404
5300.81450206
5303.71694031
5306.80379054
5310.06263371
5313.47921054
5317.03730165
5320.71865875
5324.50298548
5328.36796887
5332.28936197
5336.24111756
5340.19555302
5344.12358533
5347.9950088
5351.77876553
5355.44324355
5358.95655562
5362.28675229
5365.40195835
5368.27022129
5370.8595957
5373.13613582
5375.06816254
5376.6115798
5377.75754836
5378.428293
5378.78672048
5378.66011631
5284.70298452
5284.72866993
5285.08103749
5285.65864412
5286.5424342
5287.69447446
5289.11551181
5290.78988046
5292.70998689
5294.86726811
5297.25453413
5299.86413723
5302.68776911
5305.71590295
5308.9375035
5312.33976785
5315.90794422
5319.62520311
5323.47256247
5327.42886552
5331.47081228
5335.57304504
5339.70827211
5343.84745814
5347.96008333
5352.0144009
5355.97774641
5359.81685017
5363.49811726
5366.98783806
5370.25230425
5373.25760102
5375.96961325
5378.35180625
5380.36956316
5381.97468955
5383.15596971
5383.83013871
5384.17195454
5384.00707505
5285.79108585
5285.81886919
5286.18683803
5286.7882323
5287.70745148
5288.90491667
5290.38159125
5292.12135168
5294.11651081
5296.35838552
5298.83972115
5301.55278533
5304.48914726
5307.63909346
5310.99132064
5314.53266196
5318.24789482
5322.11960378
5326.12810035
5330.25139852
5334.46524622
5338.74320392
5343.05677446
5347.37562746
5351.66783072
5355.90014504
5360.03835142
5364.04757054
5367.89255045
5371.53786979
5374.94803093
5378.08719248
5380.91908818
5383.40458682
5385.50609303
5387.17125281
5388.38645156
5389.06286089
5389.38663239
5389.18168739
5286.82034369
5286.85021933
5287.23343775
5287.85795748
5288.81145635
5290.05269421
5291.5828252
5293.3852863
5295.45232041
5297.77515346
5300.34649293
5303.15854576
5306.20277995
5309.46931533
5312.94660071
5316.62112722
5320.47722624
5324.49692538
5328.65986382
5332.94326591
5337.32197089
5341.76849791
5346.253217
5350.74454725
5355.20920702
5359.61253601
5363.91883109
5368.09168307
5372.09426525
5375.88952849
5379.44027076
5382.70880711
5385.65679094
5388.24253661
5390.42544757
5392.14888804
5393.39655246
5394.07371402
5394.37779729
5394.13159036
5287.7821508
5287.81415911
5288.21228076
5288.85919611
5289.84561156
5291.12859589
5292.70946654
5294.57125397
5296.70616972
5299.10538972
5301.76161733
5304.66702592
5307.81300414
5311.1895247
5314.78480836
5318.5850266
5322.57409169
5326.733507
5331.04227907
5335.47689157
5340.01131807
5344.61711263
5349.26358012
5353.91795818
5358.54570308
5363.11082066
5367.57622298
5371.9040817
5376.05611129
5379.99375502
5383.67823199
5387.07014085
5390.1291739
5392.81118398
5395.07260116
5396.85244904
5398.13151727
5398.80896006
5399.09303901
5398.80550969
5288.66820928
5288.70248104
5289.11525508
5289.78384898
5290.80165366
5292.12399729
5293.75234244
5295.6693726
5297.86733075
5300.33739975
5303.07232028
5306.06426083
5309.30455104
5312.78303323
5316.48771747
5320.40447662
5324.51683097
5328.80579481
5333.24978682
5337.82459895
5342.5034041
5347.2568776
5352.05333179
5356.8589243
5361.637947
5366.35318457
5370.96629021
5375.43816405
5379.72921505
5383.79954197
5387.60896476
5391.11656543
5394.28028919
5397.05374462
5399.39055203
5401.22543993
5402.53607956
5403.21503678
5403.48053795
5403.15279527
5289.47055605
5289.50742489
5289.93486938
5290.62458011
5291.67216218
5293.03113826
5294.70313303
5296.67059031
5298.92588509
5301.46028395
5304.26661309
5307.33706312
5310.66291939
5314.23390415
5318.03782834
5322.06028317
5326.284422
5330.69080487
5335.25731029
5339.95909012
5344.76860007
5349.65571821
5354.58786958
5359.53024455
5364.44608479
5369.29709147
5374.0438137
5378.64607318
5383.06316596
5387.25405895
5391.17742138
5394.79111403
5398.05168962
5400.91089302
5403.31990907
5405.20938808
5406.55373683
5407.23812277
5407.48926562
5407.12413868
5290.18165589
5290.22181578
5290.66441624
5291.37496256
5292.45064961
5293.84314448
5295.55432943
5297.56658994
5299.87258266
5302.46375267
5305.33306077
5308.47273764
5311.87402747
5315.52653129
5319.41786283
5323.53334119
5327.85577314
5332.36529786
5337.03929743
5341.85234642
5346.77627053
5351.78024361
5356.83093058
5361.89268757
5366.92783263
5371.89715119
5376.76027073
5381.4761865
5386.00331061
5390.29974675
5394.32334148
5398.03114963
5401.37885258
5404.31696778
5406.79497831
5408.73999515
5410.12320849
5410.82108275
5411.06642762
5410.66914314
5290.79496562
5290.839932
5291.29905737
5292.03071407
5293.13286981
5294.5553934
5296.30067645
5298.35133743
5300.70052363
5303.3399634
5306.26279121
5309.46127676
5312.92660674
5316.64824248
5320.61358803
5324.80768853
5329.21301521
5333.8093138
5338.57351034
5343.4796695
5348.49906765
5353.60028426
5358.74936676
5363.90999926
5369.04369625
5374.11053611
5379.06943309
5383.87888881
5388.49667519
5392.88035768
5396.98737083
5400.77450355
5404.19730559
5407.20606175
5409.74985277
5411.75345295
5413.18557701
5413.91230211
5414.16877562
5413.74972478
5291.30308653
5291.35564739
5291.83363871
5292.58702074
5293.71363957
5295.16191025
5296.93521646
5299.01680284
5301.40054536
5304.07853396
5307.04408189
5310.28946179
5313.8057586
5317.58225293
5321.60610902
5325.8620821
5330.33230832
5334.99615959
5339.83014388
5344.80788323
5349.90018985
5355.07516977
5360.29842109
5365.53319072
5370.74027764
5375.8793114
5380.90872185
5385.78696706
5390.47140442
5394.91945209
5399.08860459
5402.93601256
5406.41801695
5409.48598711
5412.09057691
5414.15632235
5415.6515704
5416.4304788
5416.72568348
5416.30293732
5291.70500519
5291.77104706
5292.27182773
5293.04827636
5294.19718502
5295.66646958
5297.46129488
5299.56600665
5301.97544096
5304.68206956
5307.67934202
5310.95945942
5314.51333463
5318.33000717
5322.39635595
5326.69681701
5331.21318022
5335.92445038
5340.80675142
5345.83332087
5350.97458606
5356.19828585
5361.46971638
5366.75205702
5372.00530947
5377.18899342
5382.26137348
5387.18136926
5391.9060365
5396.39308306
5400.60052087
5404.48649778
5408.00912357
5411.12238266
5413.7811783
5415.91331303
5417.49135074
5418.35837522
5418.73910882
5418.34930371
5291.98848221
5292.07548974
5292.60166978
5293.40025187
5294.56668599
5296.05004179
5297.85807144
5299.97646597
5302.40104776
5305.1245365
5308.14039543
5311.44063718
5315.01591247
5318.85494869
5322.94428742
5327.2680113
5331.80755002
5336.54155005
5341.44579214
5346.49319339
5351.653899
5356.89540957
5362.1827973
5367.47989156
5372.74578673
5377.93995372
5383.02115109
5387.94914149
5392.68083716
5397.17471983
5401.38967707
5405.28528384
5408.82205694
5411.95765255
5414.65359946
5416.84476409
5418.51507554
5419.50256663
5420.02483153
5419.73166615
5292.17726931
5292.30117454
5292.85518639
5293.67517371
5294.85486539
5296.34693451
5298.16237854
5300.28825174
5302.72123446
5305.4541029
5308.48021558
5311.79131178
5315.37773046
5319.22785554
5323.32787407
5327.6615093
5332.20983694
5336.95116474
5341.86097153
5346.91191018
5352.07392406
5357.31438117
5362.59805453
5367.88963229
5373.14789624
5378.33182289
5383.40139996
5388.31711205
5393.03594371
5397.51734467
5401.72113887
5405.60836427
5409.14197625
5412.28346547
5415.00202987
5417.24236774
5419.0062588
5420.13865497
5420.84847582
5420.7308871
5292.23762092
5292.39601427
5292.96413707
5293.79415158
5294.97563823
5296.46715813
5298.28122491
5300.40532247
5302.83628688
5305.56667935
5308.58964512
5311.8966425
5315.47772648
5319.32098462
5323.41230729
5327.73512661
5332.27024339
5336.9957193
5341.88684158
5346.91613476
5352.05348819
5357.2663094
5362.51942291
5367.77799135
5373.00097273
5378.14849666
5383.17975249
5388.05678941
5392.73711879
5397.18103302
5401.3491181
5405.20334475
5408.70800832
5411.82655045
5414.53284531
5416.77886816
5418.58472267
5419.82080914
5420.71553353
5420.84304351
5260.90801648
5260.95863357
5261.10129241
5261.30344211
5261.5834593
5261.9322998
5262.35209351
5262.83886982
5263.39080454
5264.00467904
5264.67748443
5265.40572659
5266.18568509
5267.01329406
5267.88417018
5268.79360009
5269.73654914
5270.7076708
5271.70132667
5272.71159673
5273.73234985
5274.75718914
5275.77957475
5276.79284568
5277.7902183
5278.76487187
5279.70998787
5280.61880297
5281.48465564
5282.3010442
5283.06165309
5283.76044302
5284.39159597
5284.94962228
5285.4295017
5285.82551018
5286.13566007
5286.349803
5286.4821481
5286.51078766
5260.96557899
5261.00218634
5261.13309156
5261.32886572
5261.60520181
5261.9526426
5262.37206826
5262.85920304
5263.41183945
5264.02667004
5264.70058964
5265.43007515
5266.21137933
5267.04042207
5267.91280736
5268.82381108
5269.76838791
5270.7411814
5271.73654307
5272.74855127
5273.77105466
5274.79765658
5275.82177389
5276.83676036
5277.83582503
5278.8121413
5279.75888743
5280.66930224
5281.53673626
5282.35471401
5283.11697684
5283.81758625
5284.45094058
5285.01193777
5285.49636793
5285.89990758
5286.22307095
5286.45779206
5286.61900949
5286.66909805
5261.13014082
5261.15558014
5261.27774854
5261.46649109
5261.73920853
5262.0864978
5262.50830281
5262.99977372
5263.5581278
5264.17979483
5264.86147569
5265.5995485
5266.39019198
5267.22927157
5268.112341
5269.03462621
5269.99102888
5270.97613535
5271.98423378
5273.00933351
5274.04519619
5275.0853516
5276.12315657
5277.1518495
5278.16456174
5279.15438265
5280.11441188
5281.03782062
5281.91791322
5282.74820274
5283.52248085
5284.23494891
5284.8803126
5285.45397006
5285.95254669
5286.37255463
5286.71525424
5286.97053925
5287.14928525
5287.20707611
5261.36497452
5261.38466542
5261.50002993
5261.68382882
5261.95482465
5262.30399799
5262.73068227
5263.22950651
5263.79714188
5264.42971292
5265.12369856
5265.87534571
5266.68073359
5267.53564774
5268.43556618
5269.3756374
5270.35067984
5271.35518873
5272.3833515
5273.42906799
5274.4859792
5275.54749547
5276.60684177
5277.65711112
5278.6912958
5279.70234685
5280.68323179
5281.62700164
5282.52686338
5283.37626919
5284.16901034
5284.89937076
5285.56227678
5286.15346803
5286.67010091
5287.10892717
5287.4712564
5287.7441017
5287.93643857
5287.99343211
5261.69093203
5261.70734665
5261.81941013
5262.00164851
5262.27431554
5262.62876506
5263.06404888
5263.57438973
5264.15602276
5264.80478171
5265.51692781
5266.28855991
5267.11563777
5267.99384181
5268.91854559
5269.88478734
5270.88726501
5271.9203408
5272.97805503
5274.05414681
5275.14208243
5276.23508815
5277.32619359
5278.40828047
5279.47412834
5280.5164738
5281.52807396
5282.50177947
5283.43061602
5284.30788459
5285.12727139
5285.88301223
5286.5700671
5287.18424331
5287.72281381
5288.18225315
5288.56345604
5288.85094762
5289.05304456
5289.10969906
5262.09783811
5262.11312712
5262.22536521
5262.40972721
5262.68779229
5263.05116594
5263.49883723
5264.02474941
5264.62483338
5265.29468493
5266.03037615
5266.82785938
5267.68296584
5268.59125296
5269.5479665
5270.548006
5271.58591585
5272.65588756
5273.75177241
5274.86710212
5275.99511739
5277.12880293
5278.26093059
5279.38410905
5280.49083638
5281.57356211
5282.62475583
5283.63698553
5284.60300561
5285.51586377
5286.36901862
5287.15650406
5287.87310869
5288.5144434
5289.07757184
5289.55840379
5289.95733424
5290.25697421
5290.46607551
5290.5214658
5262.58817343
5262.6032642
5262.71817657
5262.90768845
5263.19456165
5263.57043291
5264.03432419
5264.57996551
5265.20307488
5265.89905437
5266.6638124
5267.49315855
5268.38278822
5269.32811988
5270.32424921
5271.36590915
5272.44745761
5273.56287741
5274.70578776
5275.86946475
5277.0468702
5278.2306882
5279.41336937
5280.58718248
5281.7442717
5282.87672235
5283.97663412
5285.03620389
5286.04781852
5287.00416522
5287.89835151
5288.72406472
5289.47574889
5290.14862397
5290.73935121
5291.24317267
5291.66010554
5291.97139066
5292.18704904
5292.2417466
5263.15772027
5263.17329128
5263.29281921
5263.48998379
5263.78866335
5264.18033134
5264.66408357
5265.23346479
5265.88403624
5266.61103667
5267.41022852
5268.27728093
5269.2077466
5270.19689033
5271.23963692
5272.33052662
5273.46369938
5274.63289271
5275.83145193
5277.05235037
5278.28821862
5279.53138232
5280.77390822
5282.00765815
5283.22435036
5284.41562908
5285.5731421
5286.68862775
5287.75401132
5288.76151758
5289.70379148
5290.57405164
5291.36626623
5292.07513367
5292.69680971
5293.22583585
5293.66198911
5293.98539758
5294.20788803
5294.26184991
5263.80467455
5263.82103822
5263.94656447
5264.15334968
5264.46640895
5264.87688619
5265.38395661
5265.98097424
5266.66336711
5267.42622235
5268.26516367
5269.17571786
5270.15328616
5271.19296491
5272.28948774
5273.43717664
5274.62992282
5275.86118244
5277.12398545
5278.41095543
5279.71433928
5281.02604627
5282.33769622
5283.64067628
5284.92620612
5286.18541156
5287.40940669
5288.58938506
5289.71671971
5290.78307827
5291.78054473
5292.70176918
5293.54014724
5294.28977167
5294.94624333
5295.50339637
5295.96089126
5296.29782121
5296.52819626
5296.58163794
5264.5257622
5264.54315947
5264.67583229
5264.89392811
5265.2236785
5265.65577277
5266.18946675
5266.81790624
5267.53639264
5268.33986277
5269.22380171
5270.18358853
5271.21446308
5272.3113382
5273.46873654
5274.68073685
5275.94095155
5277.24251992
5278.57811552
5279.9399655
5281.31988076
5282.70929644
5284.09932229
5285.48080274
5286.84438606
5288.18060266
5289.47995197
5290.73299852
5291.93047643
5293.06340789
5294.12322792
5295.10193254
5295.99226701
5296.78765224
5297.48309631
5298.07169825
5298.55307115
5298.90520984
5299.14461506
5299.19753356
5265.31794309
5265.33652691
5265.4773259
5265.7082306
5266.05680214
5266.51317425
5267.07668403
5267.74024547
5268.49903008
5269.34781946
5270.28195543
5271.29666187
5272.38700631
5273.54770317
5274.77304462
5276.05684188
5277.39239903
5278.77250345
5280.18943161
5281.63496776
5283.10043454
5284.57673495
5286.05440537
5287.5236791
5288.97456011
5290.39690641
5291.78052253
5293.11526131
5294.39113388
5295.59843298
5296.72786248
5297.77068607
5298.71892775
5299.56527282
5300.30409328
5300.92770002
5301.43569165
5301.80483886
5302.05444507
5302.10678437
5266.17765712
5266.19755788
5266.34738891
5266.59250193
5266.96191778
5267.44513043
5268.04156272
5268.7438729
5269.5470962
5270.44585102
5271.43532952
5272.51059207
5273.66652289
5274.89762337
5276.19793636
5277.56098191
5278.97972687
5280.44657227
5281.95335722
5283.49137681
5285.05141319
5286.62377918
5288.1983743
5289.76475221
5291.31219952
5292.82982497
5294.30665843
5295.73175927
5297.09433317
5298.38386136
5299.59023647
5300.70391302
5301.71612211
5302.61874295
5303.4054533
5304.06769726
5304.60506495
5304.99295017
5305.25380632
5305.30537764
5267.1010765
5267.12240207
5267.28212001
5267.54277307
5267.93497937
5268.44751787
5269.07990449
5269.82451869
5270.67625207
5271.62955117
5272.67945163
5273.82084201
5275.04841275
5276.35643829
5277.73869417
5279.18838643
5280.69811664