/*--------------------------------*- C++ -*----------------------------------*\
| =========                 |                                                 |
| \\      /  F ield         | foam-extend: Open Source CFD                    |
|  \\    /   O peration     | Version:     4.1                                |
|   \\  /    A nd           | Web:         http://www.foam-extend.org         |
|    \\/     M anipulation  |                                                 |
\*---------------------------------------------------------------------------*/
FoamFile
{
    version     2.0;
    format      ascii;
    class       volScalarField;
    location    "0.3";
    object      alpha1;
}
// * * * * * * * * * * * * * * * * * * * * * * * * * * * * * * * * * * * * * //

dimensions      [0 0 0 0 0 0 0];

internalField   nonuniform List<scalar> 
96000
(
0.99999922921
0.999999164458
0.99999923966
0.999999323088
0.999999354149
0.999999337976
0.999999305414
0.999999277817
0.999999261723
0.999999252368
0.999999246168
0.999999240034
0.99999923336
0.999999226766
0.999999221064
0.999999216792
0.999999212397
0.999999207895
0.999999205631
0.999999203366
0.999999201229
0.999999199963
0.999999199922
0.99999920119
0.999999202969
0.999999205124
0.99999920749
0.999999211649
0.999999215856
0.99999921889
0.999999222289
0.999999227823
0.999999236388
0.999999246684
0.999999255017
0.99999925677
0.999999247198
0.999999228831
0.999999216075
0.999999383547
0.999999164646
0.99999916302
0.999999258704
0.999999345758
0.999999369816
0.999999350569
0.999999318619
0.99999929317
0.999999277486
0.999999268677
0.999999262367
0.999999256148
0.999999249618
0.999999243397
0.999999237767
0.999999232527
0.999999227632
0.999999222975
0.999999218533
0.999999215153
0.999999213045
0.999999212038
0.999999212391
0.999999214082
0.999999217243
0.999999221548
0.99999922652
0.999999230935
0.99999923436
0.999999237182
0.999999240359
0.999999245535
0.999999253682
0.999999263071
0.999999268479
0.999999263278
0.99999924773
0.999999222368
0.999999212538
0.999999382811
0.999999240591
0.999999259888
0.999999376092
0.999999464394
0.999999490081
0.999999473562
0.99999944463
0.999999420996
0.999999407231
0.999999400145
0.999999395401
0.999999390611
0.999999385466
0.999999380418
0.999999375812
0.999999371596
0.999999367637
0.99999936397
0.999999360838
0.999999358562
0.999999357398
0.999999357547
0.999999358926
0.999999361443
0.99999936486
0.999999368906
0.999999373106
0.999999376777
0.999999379333
0.999999380779
0.999999382148
0.999999385292
0.99999939131
0.999999397966
0.99999939895
0.999999386496
0.999999357413
0.999999314025
0.999999262499
0.999999423952
0.999999327085
0.999999350229
0.999999466895
0.99999955867
0.999999587625
0.999999573426
0.999999545834
0.999999523269
0.999999510528
0.999999504654
0.99999950127
0.999999497865
0.999999493991
0.999999490098
0.999999486501
0.999999483183
0.999999480042
0.999999477144
0.999999474763
0.999999473209
0.999999472687
0.999999473289
0.999999474968
0.999999477613
0.999999481048
0.999999484958
0.999999488804
0.999999491808
0.99999949325
0.99999949309
0.999999492471
0.999999493592
0.999999497863
0.999999502688
0.999999500611
0.999999481462
0.999999441075
0.999999382529
0.999999320528
0.999999451254
0.99999936306
0.999999379835
0.99999949719
0.999999591579
0.999999623184
0.999999609227
0.999999580682
0.999999557285
0.999999544299
0.999999538797
0.999999536164
0.99999953362
0.999999530587
0.999999527457
0.999999524525
0.999999521809
0.999999519183
0.999999516742
0.999999514775
0.999999513579
0.999999513346
0.999999514163
0.999999515957
0.999999518617
0.999999521981
0.999999525766
0.999999529388
0.99999953194
0.999999532612
0.999999531204
0.999999529034
0.999999528698
0.99999953211
0.999999536616
0.99999953344
0.999999509665
0.999999460902
0.999999392665
0.999999325481
0.999999447228
0.999999355992
0.999999370208
0.999999489124
0.999999584652
0.999999616039
0.999999600339
0.999999569433
0.999999544059
0.999999529781
0.999999523819
0.999999521208
0.999999518899
0.999999516111
0.999999513184
0.999999510432
0.99999950774
0.999999505071
0.999999502489
0.999999500275
0.999999498762
0.999999498123
0.999999498403
0.999999499649
0.999999501688
0.999999504337
0.999999507476
0.999999510327
0.999999511928
0.999999511354
0.999999508134
0.999999503774
0.999999501455
0.999999504018
0.999999508934
0.999999507045
0.999999483748
0.999999433579
0.999999362297
0.999999289921
0.999999422028
0.999999333301
0.999999352509
0.999999473057
0.99999956833
0.999999597697
0.999999579266
0.999999545632
0.999999518
0.999999501958
0.999999495305
0.999999492442
0.999999490068
0.999999487369
0.999999484463
0.999999481352
0.9999994784
0.999999475305
0.999999472176
0.999999469298
0.999999467034
0.999999465601
0.99999946502
0.999999465186
0.999999466115
0.999999467875
0.999999469941
0.999999472036
0.999999473115
0.99999947166
0.99999946689
0.999999460833
0.999999456603
0.999999457732
0.999999463672
0.999999464525
0.999999443648
0.999999395594
0.999999324823
0.999999251106
0.99999939499
0.99999932842
0.999999344341
0.999999465616
0.999999560028
0.999999587234
0.999999566133
0.999999529863
0.999999500101
0.999999485915
0.999999478688
0.999999475345
0.999999472969
0.999999470293
0.999999467421
0.999999464432
0.99999946121
0.999999457846
0.999999454212
0.999999450499
0.999999447427
0.999999445308
0.999999444146
0.999999443826
0.999999444236
0.999999445252
0.999999446764
0.999999448547
0.999999450834
0.999999448983
0.999999443567
0.9999994363
0.999999430325
0.999999428526
0.999999431793
0.99999943134
0.999999412109
0.999999365999
0.999999296105
0.999999227006
0.999999374216
0.999999328923
0.999999347789
0.999999469134
0.999999562413
0.99999958778
0.999999564399
0.999999526201
0.99999949503
0.999999479743
0.999999472345
0.999999468862
0.9999994664
0.999999463852
0.999999461326
0.999999458383
0.999999454957
0.999999451169
0.99999944763
0.999999445364
0.999999443124
0.999999441048
0.999999439468
0.999999438157
0.999999437709
0.999999438193
0.999999439399
0.999999440733
0.999999439833
0.999999437481
0.999999431939
0.999999424512
0.999999417506
0.999999413693
0.99999941592
0.999999413379
0.999999394119
0.999999348293
0.999999278078
0.999999211486
0.999999359505
0.999999335158
0.999999357501
0.999999478402
0.999999570619
0.999999594683
0.999999569573
0.999999530018
0.999999497736
0.999999480863
0.999999473118
0.999999469964
0.999999467689
0.999999465107
0.999999462253
0.99999945926
0.999999455936
0.999999452098
0.999999447791
0.999999443765
0.999999441429
0.999999439233
0.999999437122
0.999999435818
0.999999435388
0.999999435901
0.999999437153
0.999999438547
0.999999436739
0.999999434206
0.999999428333
0.999999419712
0.999999411698
0.999999407861
0.999999408604
0.999999405134
0.999999384369
0.999999337198
0.999999265427
0.999999196533
0.999999347243
0.999999345144
0.999999367363
0.999999487617
0.999999579009
0.999999602155
0.999999575679
0.999999534951
0.999999502008
0.999999484775
0.99999947698
0.999999473887
0.999999471771
0.999999469372
0.999999466649
0.999999463619
0.999999460119
0.999999456034
0.999999451559
0.999999446861
0.999999442809
0.999999440526
0.999999438285
0.999999436175
0.999999434849
0.999999434451
0.999999435042
0.999999436396
0.999999437096
0.999999435221
0.999999429193
0.999999419095
0.999999408995
0.999999404031
0.999999403256
0.999999398547
0.999999375527
0.999999326103
0.999999252087
0.999999179429
0.999999333696
0.999999353089
0.999999374333
0.999999494167
0.999999584877
0.99999960728
0.999999579677
0.999999537942
0.999999504234
0.999999486732
0.999999478838
0.999999475796
0.999999473716
0.999999471356
0.999999468723
0.999999465517
0.999999461816
0.999999457446
0.999999452573
0.999999447653
0.999999443124
0.99999943925
0.999999436227
0.999999433984
0.999999432619
0.999999432237
0.999999432868
0.999999434071
0.999999434758
0.999999432759
0.999999426335
0.999999416411
0.999999405978
0.999999397923
0.999999395407
0.999999388559
0.999999363226
0.999999311479
0.999999234909
0.999999159193
0.999999317051
0.999999357886
0.999999378526
0.999999498152
0.999999588245
0.999999609962
0.999999581335
0.999999538627
0.999999504311
0.999999486424
0.999999478365
0.999999475231
0.999999473131
0.999999470704
0.999999467845
0.999999464521
0.999999460509
0.999999455724
0.999999450421
0.999999445088
0.99999944007
0.999999435801
0.99999943266
0.999999430197
0.999999428454
0.999999427776
0.999999428081
0.999999428816
0.999999429265
0.999999427098
0.999999419999
0.999999408872
0.999999396878
0.99999938748
0.999999383775
0.999999374189
0.999999346818
0.999999293106
0.999999214011
0.99999913521
0.999999297844
0.999999360823
0.999999381401
0.999999500825
0.999999590289
0.999999611326
0.999999581693
0.999999538036
0.999999503012
0.999999484554
0.999999476373
0.999999473063
0.999999470793
0.99999946818
0.999999465089
0.999999461474
0.999999457069
0.999999451911
0.999999446567
0.999999441065
0.999999435424
0.999999430604
0.999999426633
0.999999423302
0.999999420583
0.999999419128
0.999999419106
0.999999420036
0.999999420649
0.999999418762
0.9999994113
0.999999399561
0.999999384969
0.999999375372
0.99999936822
0.999999356907
0.999999327747
0.999999272348
0.999999190904
0.999999110014
0.999999277475
0.999999363336
0.999999384174
0.999999503214
0.999999591989
0.999999612331
0.999999581656
0.999999537007
0.999999501118
0.999999482211
0.99999947366
0.999999470048
0.999999467495
0.999999464584
0.999999461152
0.999999457143
0.999999452551
0.999999447189
0.999999441209
0.999999434556
0.999999428177
0.99999942273
0.999999418143
0.999999413995
0.999999410647
0.99999940911
0.999999409135
0.999999410052
0.999999410769
0.999999408832
0.999999401224
0.99999938846
0.999999372995
0.999999360629
0.999999351105
0.999999338251
0.999999307398
0.999999250449
0.999999166947
0.999999083831
0.999999256935
0.99999936596
0.999999387255
0.999999505695
0.999999593702
0.999999613331
0.999999581556
0.999999535859
0.999999499052
0.999999479566
0.999999470542
0.999999466522
0.999999463582
0.999999460273
0.999999456414
0.999999451921
0.999999446931
0.999999440925
0.999999433804
0.999999426577
0.999999419505
0.99999941329
0.999999407914
0.999999403213
0.999999399691
0.999999397991
0.999999397702
0.999999398636
0.99999939947
0.999999397447
0.999999390021
0.999999376182
0.999999361067
0.99999934394
0.999999333237
0.999999318715
0.999999286352
0.999999228239
0.999999142974
0.999999054422
0.999999237155
0.99999936902
0.999999390468
0.999999508212
0.999999595399
0.999999614291
0.999999581379
0.999999534558
0.999999497046
0.999999476495
0.999999467097
0.999999462606
0.999999459189
0.999999455409
0.999999451067
0.999999445973
0.999999440095
0.999999433523
0.999999425468
0.999999417276
0.999999409483
0.999999402435
0.999999396484
0.999999391553
0.999999387613
0.99999938498
0.999999384266
0.99999938528
0.999999386404
0.999999384726
0.999999377891
0.999999364207
0.999999345637
0.999999326282
0.999999315042
0.999999298178
0.999999264658
0.999999206023
0.999999119476
0.999999028705
0.999999218656
0.999999372078
0.999999393657
0.999999510662
0.999999597018
0.999999615192
0.999999581137
0.999999533224
0.999999494689
0.999999473457
0.999999463488
0.999999458467
0.999999454525
0.999999450221
0.999999445338
0.999999439667
0.999999432758
0.999999425007
0.999999416508
0.999999407515
0.99999939887
0.999999390915
0.999999384472
0.999999379067
0.999999373827
0.99999937047
0.999999369939
0.999999371194
0.999999372567
0.999999371495
0.999999365245
0.999999349915
0.999999328565
0.999999311712
0.999999296408
0.999999276533
0.999999242379
0.999999183673
0.999999096805
0.999999012278
0.999999201498
0.999999375392
0.999999396749
0.999999513064
0.999999598619
0.999999616116
0.999999580946
0.999999531969
0.99999949242
0.999999470514
0.999999459953
0.999999454389
0.999999449896
0.999999445043
0.999999439533
0.999999433189
0.999999425708
0.999999417122
0.99999940737
0.999999397367
0.999999387848
0.999999378975
0.999999371441
0.999999365184
0.99999935943
0.999999356282
0.999999355667
0.999999356929
0.999999358565
0.999999358155
0.999999352324
0.999999333868
0.999999313199
0.999999295712
0.999999275323
0.999999254529
0.999999220192
0.999999161831
0.999999075218
0.999998999273
0.999999185813
0.999999378806
0.999999399832
0.999999515523
0.999999600333
0.999999617207
0.999999580962
0.999999530959
0.999999490464
0.999999467781
0.999999456705
0.999999450601
0.99999944556
0.999999440118
0.999999433964
0.99999942694
0.999999418679
0.999999408956
0.999999398441
0.999999387685
0.999999377213
0.999999367574
0.999999358868
0.999999351431
0.999999345956
0.999999342554
0.99999934126
0.999999342555
0.999999344912
0.999999345293
0.9999993397
0.999999319726
0.999999297013
0.999999277233
0.999999255886
0.999999232592
0.99999919818
0.999999141003
0.999999055194
0.999998966037
0.999999173016
0.999999381874
0.999999403046
0.999999518121
0.999999602232
0.999999618542
0.999999581241
0.999999530252
0.999999488904
0.999999465226
0.999999453776
0.999999447134
0.99999944154
0.999999435482
0.999999428657
0.999999420867
0.99999941176
0.999999401226
0.999999389735
0.999999377965
0.999999366621
0.999999356215
0.999999346894
0.999999338934
0.999999333024
0.999999329167
0.999999327713
0.999999329465
0.9999993326
0.99999933352
0.99999932937
0.9999993094
0.999999282843
0.999999258672
0.999999236721
0.999999210987
0.999999176454
0.999999121755
0.999999037111
0.999998957877
0.999999165289
0.999999385414
0.999999406259
0.999999520836
0.99999960428
0.999999620065
0.999999581707
0.999999529736
0.999999487434
0.999999463035
0.999999451021
0.999999443799
0.999999437638
0.999999430924
0.999999423382
0.999999414793
0.999999404804
0.999999393364
0.999999380876
0.99999936816
0.999999355996
0.999999344879
0.999999335118
0.999999326902
0.999999320383
0.999999316384
0.99999931627
0.999999319081
0.999999322254
0.999999323732
0.9999993211
0.999999299389
0.99999926973
0.99999923966
0.999999214309
0.999999191236
0.999999156991
0.999999105701
0.999999024532
0.999998958649
0.999999165596
0.999999388666
0.999999409435
0.999999523594
0.99999960636
0.999999621626
0.999999582212
0.999999529255
0.999999485973
0.999999460828
0.999999448214
0.999999440377
0.999999433565
0.999999426135
0.999999417816
0.999999408382
0.999999397474
0.999999385051
0.999999371623
0.999999358068
0.999999345181
0.999999333512
0.999999323404
0.999999315057
0.999999308394
0.999999304566
0.999999305647
0.999999308398
0.999999311972
0.999999315827
0.999999312112
0.999999288331
0.999999259706
0.999999224128
0.999999197118
0.999999173702
0.9999991427
0.999999095515
0.999999020002
0.999998959421
0.999999174977
0.999999392219
0.999999412498
0.999999526259
0.999999608348
0.999999623111
0.999999582631
0.999999528708
0.999999484433
0.999999458506
0.99999944525
0.999999436743
0.999999429173
0.999999420939
0.999999411766
0.999999401429
0.999999389571
0.999999376189
0.999999361884
0.999999347561
0.999999334098
0.99999932207
0.999999311873
0.999999303732
0.999999297065
0.99999929311
0.999999295546
0.999999298622
0.999999302259
0.999999306845
0.999999307495
0.999999281525
0.999999248236
0.999999212769
0.999999181282
0.999999155241
0.999999132271
0.999999092147
0.999999023979
0.99999899691
0.999999192148
0.999999396008
0.999999415307
0.999999528719
0.999999610159
0.999999624442
0.999999582916
0.9999995281
0.999999482899
0.999999456106
0.999999442234
0.999999432992
0.999999424568
0.999999415437
0.999999405334
0.999999394052
0.999999381254
0.999999366984
0.999999351885
0.999999336957
0.999999323134
0.999999311024
0.999999301037
0.999999293235
0.999999286734
0.999999282978
0.999999285973
0.999999290818
0.999999294384
0.999999298299
0.999999302752
0.999999273892
0.999999235089
0.999999201853
0.999999162517
0.999999136733
0.999999119581
0.999999091881
0.999999040876
0.999999041726
0.999999217079
0.999999399749
0.999999417553
0.99999953092
0.999999611688
0.999999625532
0.999999583058
0.999999527439
0.999999481523
0.999999453632
0.999999439346
0.999999429355
0.999999420012
0.999999409917
0.99999939884
0.999999386606
0.99999937293
0.99999935791
0.999999342233
0.999999326971
0.999999313109
0.999999301342
0.999999291906
0.999999284061
0.999999278297
0.999999276811
0.99999927772
0.999999281518
0.999999286212
0.999999293251
0.999999291556
0.999999261268
0.999999221281
0.999999183653
0.999999149361
0.999999129107
0.9999991088
0.999999091565
0.999999067368
0.999999072143
0.999999253175
0.9999994022
0.999999419423
0.999999532568
0.999999612647
0.999999626085
0.999999582693
0.999999526389
0.999999479817
0.999999451254
0.999999436447
0.999999425732
0.99999941548
0.999999404391
0.999999392328
0.999999379198
0.999999364804
0.999999349268
0.999999333341
0.999999318147
0.999999304704
0.99999929375
0.999999285162
0.999999277913
0.999999272732
0.999999271774
0.999999272428
0.999999271471
0.999999277738
0.999999294387
0.999999280878
0.999999249655
0.999999206802
0.999999158511
0.999999133779
0.999999122937
0.999999104572
0.999999100778
0.999999091174
0.999999094974
0.999999300994
0.999999403586
0.999999420774
0.999999533228
0.999999612524
0.99999962544
0.999999581082
0.999999524089
0.999999476916
0.999999447866
0.999999432643
0.999999421244
0.999999410096
0.999999397984
0.999999384961
0.99999937111
0.999999356204
0.999999340426
0.999999324626
0.999999309975
0.999999297543
0.999999287751
0.999999280079
0.999999274372
0.999999270346
0.999999267041
0.999999263249
0.999999265339
0.999999280677
0.999999299896
0.999999268457
0.999999234094
0.999999188585
0.999999135273
0.999999103192
0.999999095342
0.999999109539
0.999999119459
0.999999114614
0.999999122038
0.999999349489
0.999999404617
0.999999420827
0.999999532399
0.99999961058
0.999999622609
0.999999577077
0.999999519231
0.99999947134
0.999999441778
0.999999426212
0.999999414046
0.999999402008
0.99999938897
0.999999375047
0.999999360443
0.999999345139
0.999999329424
0.999999314129
0.999999300449
0.999999289415
0.999999280909
0.999999274637
0.999999269954
0.999999265813
0.999999260075
0.99999925982
0.999999272119
0.999999280539
0.999999266802
0.999999246442
0.99999920615
0.99999915804
0.999999109813
0.999999067607
0.9999990535
0.999999094624
0.999999128388
0.999999150202
0.999999192284
0.999999402311
0.999999404476
0.999999419574
0.99999952975
0.999999606442
0.999999617034
0.999999569985
0.999999510914
0.999999461952
0.999999431799
0.999999415078
0.999999402495
0.999999389519
0.999999375326
0.999999360379
0.999999345044
0.999999329401
0.999999313824
0.999999299195
0.999999286747
0.999999277056
0.999999270002
0.999999264991
0.999999260578
0.999999254284
0.999999251212
0.999999259248
0.999999249617
0.999999234018
0.999999226728
0.999999207532
0.99999916189
0.999999110201
0.999999041224
0.999998975123
0.99999899535
0.99999906188
0.99999912729
0.999999205114
0.999999282464
0.999999466723
0.99999940369
0.999999417475
0.999999525857
0.999999600732
0.999999609452
0.999999560645
0.999999499976
0.999999449402
0.999999418043
0.999999400132
0.999999386653
0.999999372432
0.999999357009
0.99999934096
0.999999324694
0.999999308697
0.999999293224
0.99999927925
0.99999926787
0.999999259168
0.999999253093
0.99999924855
0.999999243537
0.999999237798
0.999999235836
0.999999228699
0.999999204453
0.999999191925
0.999999176355
0.999999148555
0.999999104103
0.999999012024
0.999998927225
0.999998927786
0.999998936228
0.999999032487
0.999999142808
0.999999257105
0.999999358143
0.999999540285
0.999999403219
0.99999941584
0.999999522142
0.999999595207
0.999999602116
0.999999551703
0.999999489448
0.999999437127
0.999999403549
0.999999384477
0.999999369653
0.999999353932
0.999999337057
0.999999319797
0.999999302697
0.999999286152
0.999999270734
0.999999257403
0.999999246695
0.999999238799
0.999999233308
0.999999228918
0.999999222516
0.999999215587
0.999999212466
0.999999193797
0.999999161948
0.999999140801
0.999999116184
0.999999083002
0.999998992951
0.999998925716
0.99999892559
0.999998926289
0.999998927919
0.999998997574
0.999999172077
0.999999327045
0.999999452891
0.999999628923
0.999999404242
0.999999415713
0.999999519949
0.999999591474
0.999999597213
0.999999545862
0.999999482619
0.99999942897
0.9999993934
0.999999371944
0.999999354796
0.999999338383
0.999999320217
0.999999301694
0.9999992838
0.999999266941
0.999999251654
0.999999238942
0.999999228735
0.99999922135
0.999999216529
0.999999212239
0.999999204353
0.999999196085
0.99999919135
0.999999165345
0.99999912478
0.999999091181
0.999999061557
0.999998992352
0.999998926053
0.999998925038
0.99999892503
0.999998926042
0.999998927685
0.999998998564
0.999999235816
0.999999427771
0.999999578625
0.999999741663
0.999999406478
0.999999416742
0.999999518518
0.999999588492
0.999999593735
0.999999542279
0.999999478925
0.99999942482
0.999999386916
0.999999363682
0.999999344944
0.99999932585
0.999999307326
0.999999288104
0.999999269658
0.999999252775
0.999999237942
0.999999225845
0.999999216432
0.999999210027
0.999999206259
0.999999201549
0.999999194158
0.999999191003
0.999999180165
0.999999134711
0.999999095346
0.999999064519
0.999999014522
0.999998928391
0.999998926994
0.999998926125
0.999998926389
0.999998927643
0.999998933715
0.999999106814
0.99999934881
0.99999956824
0.999999743837
0.999999886477
0.999999408182
0.999999415947
0.999999513837
0.999999581055
0.999999584949
0.999999533905
0.999999470941
0.999999416706
0.999999378113
0.999999352143
0.999999331882
0.999999310811
0.999999289714
0.999999269589
0.999999250403
0.999999232908
0.999999219989
0.999999209253
0.999999202363
0.999999199398
0.99999919738
0.999999193801
0.999999188534
0.999999187893
0.999999174596
0.99999912763
0.999999089616
0.999999060296
0.99999901135
0.999998936537
0.999998928391
0.999998927638
0.999998927948
0.999998929058
0.999999021611
0.999999280865
0.999999514915
0.99999975381
0.999999954495
1.00000004447
0.999999407316
0.999999409649
0.999999500276
0.999999561527
0.999999560247
0.999999509314
0.9999994471
0.99999939265
0.999999352373
0.999999323543
0.999999299482
0.999999276328
0.999999253485
0.999999231816
0.999999212213
0.999999195606
0.999999182771
0.999999173108
0.999999166917
0.999999165173
0.999999167929
0.999999172215
0.999999174283
0.999999175158
0.999999164257
0.999999136158
0.999999107737
0.999999077867
0.999999050094
0.999999020899
0.999998975947
0.999998942987
0.99999896178
0.999999055406
0.999999261101
0.999999472358
0.99999972477
0.999999979156
1.00000015845
1.00000021218
0.999999401603
0.99999939706
0.999999475603
0.999999526043
0.999999515714
0.999999462676
0.999999400034
0.999999344746
0.999999302438
0.999999270288
0.99999924269
0.999999216778
0.99999919156
0.999999168499
0.999999148001
0.999999131335
0.999999119714
0.999999112268
0.999999109531
0.999999110787
0.99999911886
0.999999132162
0.999999144799
0.999999148965
0.999999138193
0.999999124581
0.999999120251
0.999999112626
0.99999909782
0.999999082579
0.999999081604
0.99999909613
0.999999156898
0.999999287434
0.999999464899
0.999999694174
0.999999959106
1.00000018725
1.00000038214
1.000000388
0.999999389843
0.999999378914
0.999999440083
0.999999476365
0.999999455487
0.999999398043
0.999999333087
0.99999927619
0.99999923094
0.999999195285
0.999999163739
0.999999133753
0.999999105077
0.999999079196
0.999999057483
0.999999040546
0.999999029005
0.99999902274
0.999999022525
0.999999030818
0.999999046245
0.999999066124
0.999999087062
0.99999910709
0.999999116298
0.999999114159
0.999999115843
0.999999119492
0.999999128755
0.999999141971
0.999999163148
0.99999921431
0.99999932088
0.999999468132
0.99999966242
0.999999909825
1.00000014897
1.00000039519
1.00000059804
1.00000054852
0.999999378172
0.999999368305
0.999999401828
0.999999425685
0.999999395009
0.999999332632
0.999999266645
0.999999207035
0.999999160279
0.999999120734
0.999999082656
0.999999050315
0.99999902341
0.999998995788
0.999998972318
0.999998955378
0.999998946107
0.999998944797
0.999998950933
0.999998968319
0.999998994828
0.999999024107
0.999999055611
0.999999090963
0.999999116797
0.999999122626
0.99999912907
0.999999144905
0.99999917769
0.999999218475
0.999999259503
0.99999931749
0.999999435532
0.999999601359
0.999999815702
1.00000005571
1.00000030797
1.00000055771
1.00000075559
1.00000063414
0.999999511845
0.999999508534
0.999999528606
0.999999531953
0.999999502509
0.999999454013
0.999999403126
0.999999358303
0.99999932121
0.999999289555
0.999999260912
0.999999234095
0.999999209248
0.999999187686
0.999999170426
0.999999158156
0.999999152319
0.999999153345
0.999999162352
0.999999178863
0.999999202664
0.999999232862
0.999999262676
0.999999285087
0.999999301386
0.999999316567
0.999999331265
0.999999346789
0.999999366623
0.999999395926
0.999999440961
0.999999508348
0.999999606769
0.999999743933
0.999999923653
1.00000010466
1.00000030701
1.0000004998
1.00000061789
1.00000044433
0.999999214637
0.999999196108
0.999999283526
0.999999355212
0.999999373411
0.999999352414
0.999999320649
0.999999294971
0.999999278953
0.999999269673
0.999999262661
0.999999255651
0.999999248437
0.999999241597
0.999999235419
0.999999230017
0.999999224642
0.999999219899
0.99999921532
0.999999211692
0.999999209164
0.99999920766
0.999999207515
0.999999208788
0.999999211161
0.999999214274
0.999999218679
0.9999992225
0.999999225802
0.999999228656
0.999999232254
0.999999238148
0.999999246969
0.999999257101
0.999999265299
0.999999266047
0.999999259218
0.999999249111
0.999999244511
0.999999420574
0.999999196198
0.999999255097
0.999999367726
0.999999438428
0.999999452097
0.999999430983
0.999999401944
0.999999379246
0.999999365632
0.999999357579
0.999999351258
0.999999344837
0.999999338288
0.9999993321
0.999999326529
0.999999321388
0.999999316616
0.999999312056
0.999999308027
0.999999304831
0.999999302694
0.999999301825
0.99999930218
0.999999303707
0.999999306253
0.99999930957
0.999999312877
0.999999315977
0.999999318411
0.999999320497
0.99999932328
0.999999328418
0.999999336799
0.999999346517
0.999999351862
0.999999347464
0.999999332082
0.999999308631
0.999999275369
0.999999426786
0.999999284996
0.999999369025
0.999999488209
0.999999562102
0.999999578639
0.999999561309
0.999999535962
0.999999516435
0.999999505121
0.999999498875
0.999999494164
0.999999489278
0.999999484152
0.999999479252
0.999999474804
0.999999470712
0.999999466844
0.999999463247
0.999999460156
0.999999457864
0.999999456591
0.999999456405
0.999999457311
0.9999994592
0.999999461894
0.999999465083
0.999999468282
0.999999470885
0.999999472448
0.999999473166
0.999999474202
0.999999477381
0.99999948356
0.999999490253
0.999999491138
0.999999478413
0.999999449711
0.999999407182
0.999999352286
0.999999462364
0.99999935976
0.999999442476
0.999999564274
0.999999641938
0.999999662103
0.999999647574
0.999999623999
0.999999605602
0.999999595226
0.999999589992
0.999999586422
0.999999582729
0.999999578749
0.999999574883
0.999999571335
0.999999568034
0.999999564884
0.999999561964
0.999999559517
0.999999557825
0.999999557066
0.999999557288
0.999999558456
0.999999560451
0.999999563097
0.999999566082
0.999999568894
0.999999570832
0.999999571381
0.999999570651
0.999999569938
0.999999571339
0.999999575957
0.999999580933
0.999999578833
0.999999559773
0.999999520039
0.999999462523
0.999999392864
0.999999483911
0.999999383586
0.999999461586
0.999999585129
0.999999665762
0.999999687982
0.999999674038
0.999999650073
0.999999631101
0.999999620449
0.999999615366
0.999999612275
0.99999960923
0.999999605914
0.999999602654
0.999999599632
0.999999596756
0.999999593958
0.999999591331
0.999999589121
0.999999587606
0.999999586949
0.999999587177
0.999999588246
0.999999590047
0.999999592421
0.999999595068
0.999999597445
0.999999598779
0.999999598436
0.999999596444
0.9999995943
0.999999594364
0.999999598223
0.999999602902
0.99999960005
0.999999578077
0.99999953232
0.999999466661
0.999999390017
0.999999477358
0.999999372208
0.999999449964
0.999999575777
0.999999658072
0.999999680418
0.999999665233
0.999999639517
0.999999619014
0.999999607421
0.999999601951
0.999999598862
0.999999596018
0.999999592966
0.999999589945
0.999999587086
0.99999958429
0.999999581478
0.999999578755
0.999999576383
0.99999957463
0.999999573664
0.999999573502
0.99999957411
0.999999575395
0.999999577227
0.999999579335
0.999999581139
0.999999581802
0.999999580514
0.999999577248
0.999999573584
0.999999572352
0.999999575629
0.999999580728
0.999999578805
0.999999557128
0.999999510009
0.999999441268
0.999999360917
0.999999453606
0.999999354183
0.999999434712
0.999999562332
0.999999644858
0.999999665946
0.999999648628
0.999999620729
0.999999598508
0.999999585802
0.999999579768
0.999999576457
0.999999573575
0.999999570504
0.999999567477
0.999999564687
0.999999561795
0.999999558762
0.999999555733
0.999999552986
0.999999550793
0.999999549315
0.999999548602
0.99999954865
0.99999954937
0.99999955062
0.999999552258
0.999999553569
0.999999553609
0.999999551528
0.999999547312
0.999999542271
0.999999539786
0.99999954242
0.99999954767
0.999999546837
0.999999526626
0.999999480467
0.999999411407
0.999999328877
0.999999428872
0.999999344695
0.999999428844
0.999999557256
0.999999639052
0.999999658418
0.999999638926
0.999999609035
0.999999585218
0.999999570535
0.999999564022
0.999999560652
0.999999557727
0.999999554721
0.999999551704
0.999999548773
0.999999545771
0.999999542498
0.999999539112
0.99999953589
0.999999533177
0.999999531118
0.999999529776
0.999999529225
0.999999529366
0.999999530152
0.999999531397
0.999999532389
0.999999532182
0.999999529802
0.999999524843
0.999999518665
0.999999514819
0.999999516696
0.999999521689
0.999999521573
0.999999502283
0.999999457046
0.99999938808
0.999999303567
0.99999940977
0.999999347843
0.999999432968
0.999999561093
0.999999641711
0.999999659356
0.999999637929
0.999999606396
0.99999958144
0.999999566276
0.99999955939
0.99999955597
0.999999553112
0.999999550102
0.999999546955
0.999999543942
0.999999540827
0.99999953734
0.999999533391
0.999999529058
0.999999525391
0.999999522698
0.999999520883
0.999999519988
0.999999519767
0.999999520171
0.999999521101
0.99999952198
0.999999522714
0.999999520387
0.999999514914
0.999999507573
0.999999502251
0.999999502749
0.999999506495
0.999999505964
0.999999486455
0.999999441114
0.999999371475