/*--------------------------------*- C++ -*----------------------------------*\
| =========                 |                                                 |
| \\      /  F ield         | foam-extend: Open Source CFD                    |
|  \\    /   O peration     | Version:     4.1                                |
|   \\  /    A nd           | Web:         http://www.foam-extend.org         |
|    \\/     M anipulation  |                                                 |
\*---------------------------------------------------------------------------*/
FoamFile
{
    version     2.0;
    format      ascii;
    class       volScalarField;
    location    "0.3";
    object      epsilon;
}
// * * * * * * * * * * * * * * * * * * * * * * * * * * * * * * * * * * * * * //

dimensions      [0 2 -3 0 0 0 0];

internalField   nonuniform List<scalar> 
96000
(
0.0682918288938
0.0681476238123
0.0688726139911
0.0691752245396
0.0692648713931
0.0692884275141
0.069294277974
0.0692956812459
0.0692959931087
0.0692960307701
0.0692959904425
0.0692959198032
0.0692958313383
0.0692957287931
0.0692956136238
0.0692954865571
0.0692953480642
0.0692951985019
0.0692950382612
0.0692948672796
0.0692946880046
0.0692945021137
0.0692943050597
0.0692941023629
0.0692938939191
0.0692936807853
0.0692934640215
0.0692932442657
0.0692930210837
0.0692927908617
0.0692925388135
0.0692922073327
0.0692915643881
0.0692896725263
0.0692827738508
0.0692564243507
0.0691590569883
0.0688381608481
0.068084796438
0.0682904918421
0.0681511085075
0.0814699930808
0.0897816074113
0.0935895134942
0.094878788158
0.0952717196751
0.0953847076626
0.0954175552222
0.0954289709342
0.0954351507149
0.0954403228592
0.0954455712755
0.0954511675913
0.0954571828291
0.0954636329534
0.0954705157702
0.0954778189329
0.0954855221838
0.095493597117
0.0955020082493
0.095510707304
0.0955196477444
0.095528780475
0.0955380315418
0.0955473351897
0.0955566186895
0.0955658060742
0.0955748171228
0.0955835602501
0.0955918931662
0.0955994573744
0.0956050046546
0.0956038245724
0.0955783418397
0.095465932846
0.095058001023
0.0937221740239
0.0898297084786
0.0814915268774
0.0681691948008
0.0688742658846
0.0897736897758
0.105511168223
0.11326451124
0.11628851494
0.11734458181
0.117683427021
0.117785541846
0.117815278221
0.117824221912
0.117827475635
0.117829276008
0.117830783892
0.117832332095
0.117834030145
0.117835925199
0.117838042681
0.117840397064
0.117842994272
0.117845832981
0.11784890299
0.117852190999
0.117855677589
0.11785932989
0.117863112969
0.117866984108
0.117870891486
0.11787476248
0.11787845856
0.117881596973
0.117882880708
0.117877670503
0.117849659413
0.117744174534
0.117389652303
0.11629304705
0.113188452255
0.105330274615
0.0896350105556
0.0688725849333
0.0691758930874
0.0935759826257
0.113256812708
0.12359800249
0.127984887943
0.129649530998
0.130225407629
0.130409144243
0.130462930803
0.130476344851
0.130477674624
0.130475377456
0.130471895996
0.130467950742
0.130463781744
0.130459496276
0.130455161907
0.130450831682
0.130446550745
0.130442358451
0.130438288434
0.130434369992
0.130430627437
0.130427076505
0.130423727803
0.130420582818
0.13041762709
0.130414802269
0.130411903007
0.130408196383
0.130401072341
0.130381475531
0.130319373037
0.130121075648
0.129515942077
0.127795450813
0.123317676333
0.112886918183
0.093328199103
0.0691630399029
0.0692651848387
0.0948625721008
0.116276225199
0.127979610408
0.133188879754
0.135264608051
0.136016966637
0.136267071413
0.136342373099
0.136360804102
0.136361439498
0.136356465167
0.136349529533
0.136341732882
0.136333441982
0.136324817473
0.136315960294
0.136306952197
0.136297866797
0.136288772755
0.136279734377
0.136270811964
0.136262061098
0.136253531156
0.136245265087
0.136237295221
0.136229631249
0.136222215816
0.136214763885
0.136206190818
0.136192660254
0.136161262813
0.13607087177
0.135799007178
0.135009672492
0.13287174352
0.127572612888
0.115800301607
0.094562863315
0.0692483417506
0.069288633015
0.0952544377781
0.11733005336
0.129641380078
0.135261536023
0.137561886753
0.13841825056
0.138710238615
0.138800163263
0.138822555662
0.138823283769
0.138817031285
0.138808298929
0.138798467543
0.138787999636
0.138777095061
0.138765877425
0.138754446543
0.138742893013
0.138731302295
0.138719755594
0.138708329882
0.138697097303
0.13868612397
0.138675468641
0.138665177754
0.138655269573
0.13864567713
0.138636044726
0.138625019658
0.138607893566
0.138569173869
0.138460753836
0.138143333791
0.13724612724
0.134880826014
0.129172579415
0.116804494052
0.0949327752293
0.0692709000423
0.0692944539669
0.0953669905626
0.117667793849
0.13021570928
0.13601215043
0.138416451201
0.139324065845
0.139637891426
0.139735908249
0.139760730889
0.139761748658
0.139755012215
0.139745513054
0.139734802277
0.139723403834
0.139711543894
0.139699361209
0.139686967046
0.139674461962
0.139661940473
0.139649492069
0.13963720112
0.139625146246
0.139613399252
0.139602023288
0.139591067358
0.139580548081
0.139570384653
0.139560169197
0.139548378622
0.139529789009
0.139487464105
0.139369609739
0.139028601897
0.138077808082
0.1356060278
0.129720175485
0.117118543319
0.0950340926418
0.069276983435
0.0692958511867
0.0953996097786
0.117769243371
0.130398466438
0.136261115645
0.138707240458
0.139636678611
0.139960293515
0.140062140225
0.14008821883
0.140089483182
0.140082625348
0.14007288094
0.140061892476
0.140050220701
0.140038109729
0.140025709541
0.140013139813
0.140000507847
0.139987913497
0.1399754502
0.139963204785
0.139951256767
0.139939677296
0.139928527133
0.13991785087
0.139907657425
0.139897850629
0.139887985567
0.13987643905
0.13985771126
0.139814140166
0.139692176904
0.139340474044
0.13836584463
0.135848821026
0.129892262194
0.117206258559
0.0950584734145
0.0692791113262
0.0692961638825
0.0954108524091
0.117798435229
0.130451435403
0.136335453485
0.138796143389
0.139733658488
0.140061102772
0.140164536187
0.140191183211
0.140192603614
0.140185756349
0.140175988181
0.140164989373
0.140153344084
0.14014131052
0.140129048771
0.140116686336
0.140104336522
0.140092103392
0.14008008267
0.140068361424
0.140057017228
0.140046117078
0.140035715338
0.140025847873
0.140016511962
0.140007594726
0.139998622336
0.139987909819
0.139969807966
0.139926291133
0.139802979483
0.13944686461
0.138462036379
0.135926052259
0.12994127922
0.117224843227
0.0950619103826
0.0692804315111
0.0692962046548
0.0954168875206
0.117806857556
0.130464044578
0.136352924432
0.138817514137
0.139757445485
0.140086149896
0.140190157822
0.140217044532
0.140218567524
0.140211786535
0.140202098823
0.140191222527
0.140179759741
0.140167982012
0.140156060091
0.140144130047
0.140132311706
0.140120713426
0.140109432769
0.140098555927
0.140088156803
0.14007829582
0.140069017889
0.140060346589
0.140052263965
0.14004463797
0.1400369679
0.140027522948
0.140010559134
0.139967839809
0.139844526326
0.139486734281
0.138497176806
0.135952057773
0.129953815797
0.117224134948
0.0950602587581
0.0692817316155
0.0692961684699
0.0954219544154
0.117809598882
0.130464543571
0.136352551656
0.138817164616
0.139757373623
0.140086336486
0.140190517004
0.140217517806
0.140219136869
0.140212469179
0.140202938668
0.140192284301
0.140181125204
0.140169747354
0.140158333764
0.140147030586
0.140135965338
0.140125251296
0.140114987863
0.140105259676
0.140096135429
0.140087666624
0.14007988559
0.140072799834
0.140066372004
0.140060446985
0.140054495058
0.140046742889
0.140031369221
0.139989977317
0.139867389672
0.139509083717
0.138516762776
0.13596563224
0.129958103565
0.117219516642
0.0950581562893
0.0692832345687
0.0692961025833
0.0954271610426
0.117810913419
0.130461396803
0.136346521888
0.13880977785
0.139749494353
0.14007835858
0.14018258093
0.140209676226
0.140211426199
0.140204937979
0.140195654789
0.140185335547
0.140174617919
0.14016380458
0.140153093137
0.140142641878
0.140132587565
0.140123049376
0.14011412872
0.140105907944
0.140098448815
0.140091791156
0.140085950969
0.140080915111
0.140076621613
0.140072886819
0.140069146961
0.14006358271
0.140050295556
0.140010735242
0.139889401422
0.139531158187
0.138536710777
0.135980213747
0.129963841722
0.1172163654
0.0950573797914
0.0692850323544
0.0692960192802
0.0954328059161
0.117811988813
0.130457068646
0.136338502283
0.138799873453
0.139738820507
0.140067477114
0.140171726817
0.140198953654
0.140200903233
0.140194688203
0.140185770565
0.140175931219
0.140165829332
0.140155787422
0.140146020627
0.140136701967
0.140127979471
0.140119979418
0.140112805461
0.140106536731
0.140101225984
0.140096898028
0.140093547948
0.140091136231
0.140089569692
0.140088628982
0.14008770889
0.140084936617
0.14007432803
0.140037166923
0.139917604471
0.139559834953
0.138563448101
0.136001355871
0.129975256082
0.117217333039
0.0950590205566
0.0692871882261
0.0692959221392
0.0954389877808
0.117813187779
0.130452306471
0.136329618371
0.138788858601
0.139726932768
0.140055369058
0.140159685565
0.140187116313
0.140189363821
0.14018354584
0.140175145616
0.140165969666
0.140156702638
0.140147690807
0.140139170557
0.140131332832
0.140124339387
0.140118325054
0.14011339605
0.140109627293
0.140107059988
0.140105699817
0.140105515294
0.140106433463
0.140108321704
0.140110915922
0.140113559832
0.140114316725
0.140107103728
0.140073017093
0.139955815438
0.139598931871
0.138600667436
0.136032433757
0.12999517206
0.117224476643
0.0950640680013
0.0692897589198
0.0692958124501
0.0954457502436
0.11781465073
0.130447379121
0.136320264795
0.138777225384
0.139714388606
0.140042634405
0.140147087888
0.140174821767
0.140177493136
0.140172227034
0.14016453199
0.140156244874
0.140148080699
0.140140414366
0.140133507995
0.140127574324
0.140122791804
0.14011930575
0.140117225428
0.140116620378
0.140117517215
0.140119897545
0.140123696449
0.140128798898
0.140135022721
0.140142047871
0.140149155016
0.140154330371
0.140151375638
0.140121172257
0.140007031572
0.139651514053
0.138651424253
0.136076365788
0.130026187042
0.117239827414
0.0950735519578
0.069292798967
0.0692956907619
0.0954531182269
0.117816455939
0.130442423672
0.136310631694
0.138765205411
0.139701450522
0.140029560193
0.140134243348
0.140162403233
0.140165651246
0.140161123315
0.140154358384
0.14014722939
0.14014048767
0.140134542539
0.140129687214
0.140126160931
0.140124162613
0.140123850442
0.140125337458
0.140128686542
0.140133906205
0.140140948043
0.140149705479
0.140160011023
0.140171620727
0.140184144986
0.140196786766
0.140207439189
0.140209768508
0.140184409356
0.140074162848
0.139720589364
0.138718759358
0.13613611173
0.13007099745
0.117265542802
0.095088577305
0.0692963600536
0.0692955573571
0.0954611054166
0.117818659516
0.13043753789
0.136300850597
0.138752955733
0.139688295934
0.140016342421
0.140121367469
0.140150098561
0.140154102459
0.140150530632
0.14014495856
0.140139302079
0.140134355824
0.14013057032
0.140128276363
0.140127745425
0.140129201491
0.140132818657
0.140138714767
0.140146944637
0.140157494698
0.14017027972
0.14018514171
0.140201848289
0.140220079044
0.140239358419
0.140258794025
0.140276166686
0.140284983634
0.140265595996
0.140160223912
0.139809285069
0.13880584916
0.136214783354
0.130132461444
0.117303926759
0.0951103221385
0.0693004890023
0.0692954124296
0.0954697154993
0.117821305249
0.130432804699
0.136291034379
0.138740610772
0.139675076483
0.140003149126
0.140108646393
0.140138115302
0.140143080177
0.140140713675
0.140136635033
0.140132810858
0.140130087125
0.140128963687
0.140129816575
0.140132956392
0.140138637777
0.140147054487
0.140158330624
0.140172511733
0.140189557671
0.140209338439
0.140231633229
0.140256130075
0.140282414565
0.14030990548
0.140337593775
0.140363124865
0.140379819433
0.140367703796
0.140268342029
0.139920859354
0.138916031544
0.136315702044
0.130213689108
0.117357505327
0.0951400428082
0.0693052256472
0.0692952561094
0.0954789418557
0.117824426507
0.130428298141
0.136281287601
0.138728296109
0.139661933904
0.139990137219
0.140096253916
0.140126647449
0.140132803044
0.140131921273
0.140129673366
0.140128085639
0.140128064813
0.140130169434
0.140134829806
0.140142403799
0.140153183362
0.140167386674
0.14018514623
0.140206497114
0.140231367659
0.140259574037
0.1402908193
0.140324694421
0.140360669804
0.140398034366
0.140435636514
0.140470960831
0.140497124999
0.140493805789
0.140402022657
0.140059663166
0.139054792291
0.13644603763
0.130323437694
0.117433245935
0.0951799808889
0.0693106170729
0.0692950885449
0.095488765436
0.117828045175
0.130424083966
0.136271708564
0.13871613149
0.139649003481
0.139977455941
0.140084354578
0.14011587789
0.140123476584
0.140124386874
0.140124341225
0.140125435849
0.140128648873
0.140134608328
0.140143809216
0.140156666127
0.140173516435
0.140194608555
0.140220086161
0.140249972879
0.140284160081
0.140322399653
0.140364302528
0.140409340946
0.140456843459
0.140505942733
0.140555343568
0.140602479992
0.140640811871
0.140649918621
0.140579335712
0.140265931707
0.139287684023
0.136693241834
0.13055087872
0.117609827035
0.0952584144734
0.069316968657
0.0692949094776
0.0954991551129
0.117832171838
0.130420219612
0.136262389184
0.138704230618
0.139636413612
0.139965245986
0.140073102152
0.140105976101
0.140115289775
0.140118323724
0.140120881932
0.140125141876
0.140132165048
0.140142661145
0.14015720169
0.140176269104
0.140200255641
0.140229446921
0.14026400136
0.140303930306
0.140349081871
0.140399130603
0.140453574251
0.140511739069
0.140572809418
0.140635965329
0.14070074329
0.140770295247
0.140851742211
0.140916022927
0.140895575921
0.140619849207
0.139664024496
0.137071802287
0.130902470966
0.117899869827
0.0954345806326
0.0693260288099
0.0692947244413
0.0955100572894
0.117836801224
0.130416751992
0.136253413398
0.138692699547
0.139624283877
0.139953637056
0.140062636505
0.140097094011
0.140108409659
0.140113917899
0.14011950556
0.140127443789
0.140138890644
0.140154650966
0.140175386195
0.140201659179
0.140233927911
0.140272523382
0.140317623006
0.140369224644
0.140427124212
0.140490899599
0.140559914777
0.140633450182
0.1407117419
0.140803169674
0.140926099416
0.141065571135
0.141203424009
0.141312187354
0.141326379646
0.141076012032
0.140133333426
0.137536000763
0.131333746498
0.118262782415
0.095676800355
0.0693443909311
0.0692945289285
0.0955214331258
0.117841925299
0.130413720141
0.136244856556
0.138681634907
0.139612722591
0.139942744737
0.140053079616
0.14008936095
0.140102974896
0.140111320248
0.140120378746
0.140132528548
0.140149038531
0.140170823385
0.140198649295
0.140233173493
0.140274931907
0.140324310052
0.140381508532
0.140446507707
0.140519034967
0.140598571303
0.140684841879
0.140781880941
0.140921073337
0.141093320693
0.141280042036
0.14146835545
0.141645782136
0.141788067549
0.141830832343
0.141602678123
0.14067134142
0.138066857837
0.131827786724
0.118680950487
0.095960259684
0.0693729893882
0.0692943221326
0.0955332125709
0.117847514268
0.130411148386
0.136236781749
0.138671120926
0.139601823646
0.139932666821
0.140044531098
0.14008287812
0.14009908898
0.140110637841
0.140123614007
0.140140516636
0.140162740419
0.140191325757
0.140227159429
0.14027100817
0.140323499023
0.140385081233
0.140455979874
0.140536145577
0.14062526631
0.140723929459
0.140849931827
0.141033546327
0.141248752808
0.141477011541
0.141708234639
0.141935343687
0.142148407051
0.142323883737
0.142396599008
0.142192563672
0.141273956499
0.138662073876
0.132382972809
0.11915228326
0.0962794709769
0.0694056563857
0.0692941099839
0.0955452952619
0.117853516468
0.130409044169
0.136229237148
0.13866122607
0.139591662571
0.139923478689
0.14003706281
0.140077712204
0.140096812555
0.140111924706
0.140129258404
0.140151448128
0.140180029875
0.140216186153
0.140260940908
0.140315186155
0.14037965318
0.140454861309
0.140541052808
0.140638198837
0.140747804718
0.140902212532
0.141122676198
0.141375385688
0.141642100665
0.141914170859
0.142186306264
0.142453043738
0.142704591866
0.142916760744
0.1430228449
0.142845724103
0.141941376924
0.139321374093
0.132997899852
0.119673821287
0.0966307709228
0.0694410850174
0.0692938913744
0.0955575892785
0.11785987124
0.130407399814
0.136222252699
0.138651997452
0.139582289544
0.139915225336
0.14003070999
0.140073885615
0.140096152555
0.140115169592
0.140137279614
0.140165266562
0.140200823263
0.140245290734
0.140299846731
0.140365523939
0.140443168356
0.140533367453
0.140636430221
0.14075439721
0.140928177044
0.141177168929
0.141462212281
0.141764593352
0.142076273404
0.142392464101
0.142708685207
0.143019131225
0.143313282704
0.143565957339
0.143708745979
0.143561167687
0.142672541607
0.140043823596
0.133671851518
0.120243920336
0.097010331298
0.069478626659
0.0692936675138
0.0955699844033
0.117866496782
0.13040618163
0.136215826109
0.138643443359
0.139573709403
0.139907899714
0.14002544843
0.140071352671
0.14009703739
0.140120270009
0.140147538548
0.140181789833
0.140224888367
0.140278349416
0.140343520246
0.140421587101
0.140513513753
0.1406199861
0.140743026466
0.14092269748
0.14119089729
0.14150249615
0.141836720614
0.142185524183
0.142544257068
0.142908452837
0.143272963532
0.143631128459
0.14397157528
0.144268102202
0.144450547522
0.14433491603
0.143463531678
0.140826165293
0.134403595127
0.120866343991
0.0974267594204
0.069519078567
0.0692934391122
0.0955823587758
0.117873281329
0.13040530255
0.136209877793
0.138635474831
0.139565814718
0.139901370936
0.14002111992
0.140069923293
0.140099239314
0.140126953336
0.140159709083
0.140200628289
0.140251760489
0.140314809332
0.140391304746
0.140482593255
0.140589766293
0.140714503071
0.140886436701
0.141161947805
0.141493000816
0.141853609281
0.142235027769
0.142632744346
0.143042253653
0.143458245757
0.143874601743
0.144283768088
0.144673523473
0.145016633823
0.145241128751
0.145159345511
0.144306278126
0.141659883619
0.135183740234
0.121529841841
0.0978696763092
0.0695615890005
0.069293205876
0.0955945703221
0.117880036179
0.130404516374
0.13620408671
0.138627697855
0.139558151139
0.13989513491
0.140017175
0.140069001112
0.140102109193
0.140134508653
0.140173006913
0.140220910287
0.14028046429
0.140353572209
0.140441954719
0.140547119853
0.140670574048
0.140826079607
0.141092461931
0.14143352377
0.141813323538
0.142220787677
0.142651511264
0.143101254023
0.143564633805
0.144035303912
0.144506169266
0.144968786059
0.145410064979
0.145801698386
0.146069823175
0.146022932651
0.145188348857
0.142531631757
0.135998355679
0.122220988057
0.0983279478136
0.0696048373777
0.0692929642613
0.0956064184217
0.117886314694
0.130403030346
0.136197308222
0.138618692362
0.139549114537
0.139887468336
0.140011804507
0.140066701823
0.140103685086
0.140140886331
0.140185279849
0.140240362403
0.140308582769
0.140392050471
0.140492677738
0.1406121891
0.140754761568
0.140987824378
0.141325943164
0.141716020448
0.142141243425
0.142596801418
0.143079076502
0.143583058271
0.144102335793
0.144629541574
0.145156611666
0.145674194924
0.146168307136
0.14660953273
0.146922074883
0.146910523516
0.146094430672
0.143426760639
0.136834711725
0.122930354084
0.0987969795458
0.0696484458028
0.0692926992065
0.0956174749537
0.117890728928
0.130398131787
0.136185589917
0.13860361538
0.139533322167
0.139872682303
0.139999133339
0.140057011344
0.140097822817
0.140139802141
0.140190083719
0.14025235418
0.140329267196
0.14042313816
0.140536073962
0.140670667755
0.140856247057
0.141171397469
0.141560561523
0.141993961396
0.142464518351
0.142969336393
0.143504312859
0.144063496299
0.144639485184
0.145223911683
0.14580773842
0.146380695495
0.14692789682
0.147418832973
0.147775841743
0.147799763363
0.1470026158
0.144324943518
0.137675386356
0.123644633263
0.0992692226683
0.0696918111378
0.0692923515012
0.0956263979327
0.117888482036
0.130380556502
0.136155770113
0.138566680137
0.139493498076
0.139832722332
0.13996068118
0.140021164729
0.140065510334
0.140111987839
0.140167863524
0.14023700145
0.140322252682
0.140426128813
0.140550981739
0.140702310802
0.140962854101
0.141335195395
0.141765786954
0.142240394902
0.142756024536
0.143309880898
0.14389709428
0.144510828295
0.145142740821
0.145783473852
0.146423024616
0.14705021961
0.14764931324
0.148188822743
0.148589518625
0.148649091265
0.14787299694
0.145190399019
0.138491606625
0.124344222437
0.0997351312809
0.0697342207889
0.0692916825534
0.095628310426
0.117862930349
0.13031979964
0.136066151172
0.138459125445
0.13937710768
0.139713200698
0.139841113685
0.139903232832
0.139950320257
0.140000507038
0.140061117685
0.140136158739
0.140228655774
0.140341301327
0.140477194794
0.140664075374
0.14099253885
0.141406149119
0.141872706914
0.142386024619
0.142944428563
0.143544650253
0.14418110268
0.144846159663
0.145530588554
0.146224060556
0.146915656869
0.147593376697
0.148240764816
0.148825715865
0.149268232936
0.149364500923
0.148616154987
0.145944226622
0.139222222355
0.124991128562
0.100179927566
0.0697747990232
0.0692897322495
0.0956052774983
0.117758657603
0.130121170543
0.13579309165
0.138140359355
0.139035089796
0.139361156295
0.139485595647
0.13954725178
0.139595354499
0.139647503982
0.139710922509
0.139789683385
0.139886938105
0.140005551555
0.14015053388
0.140391029222
0.140764571977
0.141208266864
0.141704461794
0.14225077754
0.142845666623
0.143485309321
0.144163559141
0.144872127375
0.14560096378
0.146338825285
0.14707401953
0.147793913282
0.148481693317
0.149105415031
0.149586137048
0.149722348914
0.149018546855
0.146396411503
0.139718733831
0.12549423675
0.100571683607
0.0698118245564
0.0692826683594
0.0954938175089
0.117402542427
0.129512144637
0.134998569934
0.137237434026
0.138078446035
0.138380750281
0.138495202358
0.138552482869
0.138598349612
0.138649117938
0.138711610355
0.138789827563
0.138886958032
0.139006061108
0.13915847953
0.139447329417
0.139845435057
0.140306238242
0.140820545504
0.141387565635
0.14200542496
0.142669862597
0.143374453955
0.144110452404
0.144867102289
0.145632396383
0.146394194217
0.147139611602
0.147852134429
0.148501453437
0.149013172984
0.149195729869
0.148570846375
0.14608207665
0.139601745659
0.125605084678
0.100814913484
0.0698395661326
0.0692558417254
0.0950836010534
0.116299068465
0.127781759688
0.132849200419
0.134859801185
0.135593550869
0.135849736422
0.135944228187
0.135991266775
0.136029931501
0.136074083137
0.136129696641
0.136200484763
0.13628953496
0.13640032632
0.136561323434
0.136870012732
0.137270226817
0.137728869245
0.138241188793
0.138806909398
0.139423681128
0.140086946347
0.140790561964
0.141525684991
0.142280975694
0.143044016159
0.143802823729
0.144544866482
0.145254920681
0.145906526022
0.146435302662
0.146672450037
0.146183347301
0.143978028598
0.137993825783
0.124702755054
0.100640252368
0.0698389551739
0.0691572080264
0.0937396241166
0.113180001751
0.12328691534
0.127532060943
0.129132623216
0.129687266762
0.129870618542
0.129934227251
0.129964642871
0.129990395673
0.130021599548
0.130062889758
0.130117424152
0.130187985667
0.130278164224
0.13042470766
0.130716064789
0.131089091422
0.1315162348
0.131994552156
0.132523838801
0.133101271792
0.13372195371
0.134381242197
0.135070724387
0.135778426061
0.136492381593
0.13720170159
0.137894985561
0.138559447929
0.139174911968
0.139693425115
0.139985701103
0.139700378813
0.137992804735
0.132991309917
0.121299154956
0.0992834356612
0.0697474308323
0.0688337228043
0.0898339165147
0.105304628316
0.112840007058
0.11574495536
0.116749468136
0.117068615002
0.117164365909
0.117193323957
0.117205385911
0.11721621896
0.117231553721
0.11725438157
0.117287035403
0.117331712282
0.117391414229
0.117497798618
0.117735116576
0.118047459172
0.11840728794
0.11881138942
0.119259488143
0.119748619825
0.120272589997
0.12083059844
0.121415459089
0.122014291015
0.122617255279
0.123215649022
0.123800099517
0.124361209654
0.12488656023
0.125348836593
0.125672164573
0.125630880693
0.124633148147
0.121224904126
0.112499098798
0.0950230743206
0.0694013786778
0.0680774485467
0.0814984851454
0.089620918457
0.093301640621
0.0945324026929
0.0949031078092
0.0950074413721
0.0950361862688
0.0950451321215
0.0950502160478
0.095056237754
0.0950651539284
0.0950782213915
0.0950965590254
0.0951212652648
0.0951535442094
0.0951980282788
0.0953201955546
0.0955272612641
0.0957718923453
0.0960463586547
0.0963498372059
0.096680179621
0.0970301228436
0.0974024783108
0.0977944048798
0.0981926608782
0.0985919565005
0.0989872848997
0.0993727616238
0.0997432777923
0.100093931118
0.100416444464
0.100687671874
0.10082522986
0.10057784418
0.0992074127628
0.094995237969
0.0858655791101
0.0685776434446
0.0682903269712
0.0681698574737
0.0688718756455
0.0691615204917
0.0692466781435
0.069269433968
0.0692758787475
0.06927847034
0.0692803434403
0.0692822864619
0.0692845264149
0.069287158005
0.0692902442414
0.0692938371345
0.069297980752
0.0693027133379
0.069308140813
0.0693151894014
0.0693263383206
0.0693480972404
0.0693764819313
0.0694075807347
0.0694409983561
0.0694757676464
0.0695120678171
0.0695499366711
0.0695878413535
0.0696252424417
0.0696617731898
0.0696969292998
0.0697303422706
0.0697617646588
0.0697909167275
0.0698168436098
0.0698349441599
0.0698278300372
0.0697354402299
0.0693945872583
0.0685745368269
0.0683623397324
0.0694900651889
0.0776868949144
0.0822297545973
0.083985307627
0.084563802433
0.0847394225836
0.0847929238651
0.0848131548276
0.084825430248
0.0848366026033
0.0848483610634
0.0848611127234
0.084874925872
0.0848897923711
0.0849056770078
0.0849225318545
0.0849402969498
0.0849589010447
0.0849782597902
0.0849982810228
0.0850188208152
0.0850397966692
0.0850610991003
0.0850825332462
0.0851039703816
0.0851252611596
0.0851462534487
0.0851667998213
0.0851867628247
0.0852060098032
0.0852243639272
0.0852413433173
0.0852550943579
0.0852582900987
0.0852236578398
0.085057212681
0.0844651740017
0.0826511712198
0.0779732268126
0.0695192148667
0.0776714743859
0.0765229532182
0.0804844500904
0.0822008529926
0.08279189216
0.0829752204338
0.0830289601095
0.0830448922604
0.0830505689375
0.0830537289411
0.0830564363434
0.0830592176125
0.0830622000486
0.0830654103488
0.0830688497319
0.0830725118182
0.0830763865892
0.0830804610265
0.0830847189693
0.0830891409846
0.0830937030627
0.0830983829067
0.083103152194
0.0831079762391
0.0831128218803
0.0831176539921
0.0831224361631
0.0831271310365
0.0831316971241
0.0831360700514
0.0831400810574
0.0831431296355
0.0831429574639
0.0831312544401
0.0830789574179
0.0828908412364
0.0822830651493
0.0805343770494
0.0765413789591
0.0775619097161
0.082205501857
0.0804809996484
0.084740775392
0.0867362586788
0.0874796192352
0.0877289053617
0.0878073255829
0.0878312843053
0.0878390002237
0.0878421863967
0.0878442633992
0.0878461750289
0.0878481684441
0.087850300007
0.0878525776326
0.0878549968095
0.0878575497315
0.0878602269374
0.0878630175626
0.0878659090068
0.0878688875537
0.0878719371568
0.0878750395023
0.0878781747849
0.0878813216647
0.0878844580681
0.0878875608812
0.0878906042805
0.08789354995
0.0878963063477
0.0878985743673
0.0878992921428
0.0878947520414
0.0878724500836
0.0877923833939
0.0875342701216
0.0867695850596
0.0847378862293
0.08044609837
0.0819916049579
0.0839571971297
0.0821954798757
0.0867343318911
0.0889452001851
0.0898066893941
0.0901085228911
0.0902073079659
0.0902383082218
0.0902480987945
0.0902516151794
0.0902534302177
0.0902548696253
0.0902562997609
0.0902578106907
0.0902594191357
0.0902611230012
0.0902629160556
0.0902647909899
0.0902667399642
0.0902687543372
0.090270824716
0.0902729401783
0.0902750881836
0.090277256106
0.0902794296524
0.0902815938229
0.0902837319063
0.090285821667
0.0902878185101
0.0902895926823
0.0902907084956
0.0902896760589
0.0902815448715
0.0902504016405
0.0901476523049
0.0898338990734
0.0889477576505
0.0866985449278
0.0821281045318
0.0836871118361
0.0845343810643
0.0827856078472
0.0874766826612
0.0898056084246
0.0907347346828
0.0910678704931
0.0911791441957
0.0912145688221
0.0912256879516
0.0912294074058
0.0912310248365
0.0912321171697
0.0912331335358
0.0912341893089
0.091235308524
0.0912364914313
0.0912377332692
0.0912390284653
0.0912403714057
0.0912417562025
0.0912431765667
0.0912446252747
0.0912460943377
0.091247575335
0.0912490588145
0.0912505343873
0.0912519892874
0.0912534026983
0.0912547236908
0.0912557929541
0.0912560786524
0.0912538081797
0.0912432486991
0.0912064130937
0.0910896467281
0.0907428239261
0.0897877148847
0.0874207931371
0.0827007800954
0.0842383740731
0.0847097638066
0.0829685701458
0.0877254941391
0.090106883095
0.0910672789079
0.0914153510163
0.091532693641
0.0915702750169
0.0915820172755
0.091585787372
0.0915872427961
0.0915880886609
0.0915888177688
0.0915895592973
0.0915903413224
0.0915911653872
0.0915920275684
0.0915929233485
0.0915938485104
0.0915947989529
0.0915957704617
0.0915967583742
0.0915977575163
0.0915987623463
0.0915997665546
0.0916007628324
0.0916017410736
0.0916026815663
0.0916035299335
0.091604110476
0.0916038399532
0.0916008002722
0.0915888696092
0.0915490526578
0.0914253007587
0.0910626349799
0.0900759094645
0.08765761769
0.0828746865014
0.0844006133903
0.0847633506283
0.0830221775568
0.0878037185718
0.090205415344
0.0911782679491
0.0915323984745
0.0916522097765
0.0916906466151
0.0917026059732
0.0917063510294
0.0917076886569
0.0917083775789
0.0917089289067
0.0917094773529
0.0917100523281
0.0917106556033
0.0917112834178
0.0917119316437
0.0917125967261
0.0917132755086
0.0917139649596
0.0917146618866
0.0917153628111
0.0917160639273
0.0917167608614
0.0917174482564
0.0917181178072
0.091718750886
0.0917192920615
0.0917195585677
0.0917189444791
0.0917154680147
0.0917028407631
0.0916616405113
0.0915348306515
0.0911655059859
0.0901660568221
0.0877281415584
0.0829228022743
0.0844445489878
0.0847837643047
0.0830380597246
0.0878275952566
0.0902362986929
0.0912135508405
0.0915698258042
0.091690488418
0.0917291874624
0.0917411763157
0.0917448616711
0.0917461042806
0.0917466814789
0.0917471102124
0.0917475263961
0.0917479592626
0.091748410186
0.0917488751729
0.0917493501178
0.0917498317386
0.0917503173901
0.0917508047625
0.0917512916074
0.0917517755675
0.0917522540807
0.0917527241799
0.0917531820109
0.091753620799
0.0917540232204
0.0917543343018
0.0917543691248
0.0917535128786
0.0917497570168
0.0917367433578
0.0916948718843
0.0915667148306
0.0911946493576