/*--------------------------------*- C++ -*----------------------------------*\
| =========                 |                                                 |
| \\      /  F ield         | foam-extend: Open Source CFD                    |
|  \\    /   O peration     | Version:     4.1                                |
|   \\  /    A nd           | Web:         http://www.foam-extend.org         |
|    \\/     M anipulation  |                                                 |
\*---------------------------------------------------------------------------*/
FoamFile
{
    version     2.0;
    format      ascii;
    class       volScalarField;
    location    "0.3";
    object      k;
}
// * * * * * * * * * * * * * * * * * * * * * * * * * * * * * * * * * * * * * //

dimensions      [0 2 -2 0 0 0 0];

internalField   nonuniform List<scalar> 
96000
(
0.0160106584577
0.015994310364
0.0161139163049
0.0161641936399
0.0161793212762
0.0161833727446
0.0161844043555
0.0161846652194
0.0161847351987
0.0161847580319
0.0161847686795
0.0161847756944
0.0161847812708
0.0161847860155
0.0161847901107
0.0161847935966
0.0161847964546
0.0161847986311
0.0161848000613
0.0161848005902
0.0161848004378
0.0161847997253
0.0161847975424
0.0161847945475
0.0161847905319
0.0161847854584
0.0161847792895
0.0161847719244
0.0161847630942
0.0161847519941
0.016184735853
0.0161847042441
0.0161846157284
0.0161843051109
0.0161831213927
0.0161786089745
0.0161621667403
0.0161087705037
0.0159843112294
0.0160104713817
0.015994873068
0.0137879539323
0.0147434654527
0.0151756513481
0.0153232442538
0.0153689669966
0.0153823554633
0.0153863113998
0.0153876957382
0.0153884389461
0.0153890544654
0.0153896761966
0.0153903381369
0.0153910492322
0.0153918114838
0.0153926246302
0.0153934871769
0.0153943966933
0.0153953497851
0.0153963422424
0.0153973682894
0.0153984225185
0.0153994991986
0.0154005895306
0.0154016858374
0.0154027796007
0.0154038619296
0.0154049234031
0.015405953125
0.0154069336979
0.0154078204997
0.0154084590973
0.0154082758904
0.0154051720562
0.0153918192385
0.0153442956359
0.0151912481397
0.0147492104471
0.0137904781801
0.0159978032171
0.0161141622551
0.0147425269515
0.0164679651338
0.0172936593332
0.0176154668844
0.0177291531413
0.0177662238225
0.0177775968351
0.0177809731948
0.0177820124474
0.01778240223
0.0177826243138
0.0177828126676
0.0177830059995
0.0177832169264
0.0177834507114
0.017783710064
0.0177839964352
0.0177843103092
0.0177846513676
0.0177850182893
0.0177854094713
0.0177858226174
0.0177862538984
0.0177866993072
0.0177871539618
0.0177876119378
0.0177880648522
0.0177884964963
0.0177888619893
0.0177890108313
0.0177884135218
0.0177852426688
0.017773488816
0.0177346499451
0.0176164401208
0.0172856623172
0.0164479324559
0.0147260578709
0.0161137140246
0.0161642692694
0.015174062566
0.017292808205
0.0183652898766
0.0188175946753
0.0189907170108
0.0190514963315
0.0190712290642
0.0190771270867
0.0190786537372
0.0190788525572
0.0190786497271
0.0190783169842
0.019077935318
0.0190775316003
0.0190771175358
0.0190767002515
0.0190762852058
0.0190758769618
0.0190754794403
0.0190750959298
0.0190747292593
0.019074381712
0.0190740546242
0.0190737487863
0.0190734639749
0.0190731981519
0.0190729442198
0.0190726782225
0.0190723165422
0.0190715668624
0.0190694336422
0.0190626765268
0.0190413787842
0.018977410939
0.0187981864324
0.0183358079496
0.0172525224081
0.0151449795006
0.0161619035172
0.0161793348874
0.0153213417706
0.0176141127851
0.0188170265203
0.0193480557546
0.0195612034333
0.0196395570254
0.0196660554521
0.0196742009171
0.0196762726855
0.0196764149541
0.0196759436086
0.0196752591
0.0196744836261
0.0196736578871
0.0196727993247
0.0196719185567
0.0196710239936
0.0196701231124
0.0196692228312
0.0196683295833
0.0196674493667
0.0196665876642
0.0196657492813
0.0196649383246
0.0196641577175
0.0196634078079
0.0196626812811
0.019661945032
0.0196610767661
0.0196596526263
0.0196562733242
0.0196465652429
0.0196177514617
0.0195354045501
0.0193154791411
0.018774385508
0.0175624979906
0.0152862117623
0.0161762724896
0.0161833675369
0.0153669382524
0.0177275519443
0.0189898394736
0.0195608744955
0.0197962153538
0.0198850631705
0.0199158841924
0.0199255751606
0.0199280805115
0.0199282445144
0.0199276466983
0.0199267793749
0.0199257954839
0.019924746293
0.0199236535235
0.0199225302016
0.0199213866163
0.0199202319956
0.019919074984
0.0199179237529
0.0199167860108
0.0199156689429
0.0199145790802
0.0199135221517
0.0199125025102
0.0199115213008
0.019910569941
0.0199096072393
0.0199084811949
0.0199066735397
0.0199025117161
0.0198909019235
0.0198573793373
0.0197641297946
0.0195217088861
0.0189407324268
0.0176705828869
0.015329222502
0.0161801404564
0.0161843942481
0.0153802751111
0.0177645003461
0.0190504521057
0.0196390417152
0.0198848712162
0.0199789939799
0.0200121120609
0.0200226741323
0.0200254496614
0.0200256520415
0.0200250074818
0.0200240620228
0.0200229875274
0.0200218421269
0.0200206504455
0.0200194271368
0.0200181836942
0.0200169303824
0.0200156767852
0.0200144319324
0.0200132042989
0.0200120017418
0.0200108313849
0.0200096994116
0.0200086104275
0.0200075653493
0.020006553969
0.0200055291264
0.0200043197102
0.0200023507809
0.0199977945578
0.0199851703358
0.0199491635758
0.0198503911905
0.0195972131831
0.0189985250333
0.0177049666601
0.0153412385408
0.016181201149
0.016184654452
0.0153842047616
0.0177758009534
0.0190700809618
0.0196654203186
0.0199155664663
0.0200119848702
0.0200461547951
0.0200571380285
0.0200600562907
0.0200602900871
0.0200596356858
0.0200586662725
0.0200575639828
0.0200563910709
0.0200551741309
0.020053929016
0.0200526680999
0.0200514023456
0.0200501418864
0.020048896156
0.0200476738794
0.0200464830021
0.0200453305772
0.0200442225359
0.020043163014
0.0200421520889
0.020041177832
0.0200401888776
0.0200390027902
0.02003701386
0.0200323149567
0.0200192379766
0.0199820813814
0.0198808013664
0.0196229525065
0.0190170457444
0.0177148069801
0.0153442155056
0.0161815747961
0.0161847250749
0.015385569856
0.0177791194096
0.019075894181
0.019673466691
0.0199251526594
0.0200224406683
0.0200570317207
0.0200681939306
0.0200711789742
0.0200714332928
0.0200707827709
0.0200698130795
0.0200687117171
0.0200675435233
0.0200663366064
0.0200651078797
0.0200638705235
0.0200626361128
0.0200614152032
0.0200602174516
0.0200590515927
0.0200579253577
0.0200568453566
0.0200558168449
0.0200548430375
0.0200539227719
0.020053042303
0.0200521470413
0.0200510475743
0.0200491213972
0.020044421142
0.0200311887308
0.0199935475036
0.0198911751172
0.0196313325844
0.0190224845053
0.0177170264924
0.0153446874163
0.0161818044606
0.0161847490733
0.0153862973956
0.0177801040552
0.0190773385849
0.0196754412466
0.0199275548531
0.0200251117145
0.0200598459651
0.0200710755988
0.0200740904952
0.0200743590275
0.0200737183727
0.0200727598464
0.0200716740122
0.020070527633
0.0200693502156
0.0200681597722
0.0200669703562
0.0200657941982
0.020064642277
0.0200635244167
0.0200624492396
0.0200614240749
0.0200604548323
0.0200595457695
0.0200586988092
0.0200579111825
0.0200571670993
0.0200564090407
0.020055442491
0.0200536343295
0.0200490137947
0.0200357729496
0.0199979424268
0.0198950584685
0.0196342478854
0.0190239806121
0.017717087082
0.0153445393405
0.0161820282808
0.0161847612351
0.0153869019383
0.0177804406512
0.0190774531603
0.0196754821849
0.0199276108524
0.020025204999
0.0200599719411
0.0200712238332
0.0200742541485
0.0200745359066
0.0200739101938
0.0200729712122
0.0200719117349
0.0200708003022
0.0200696679084
0.0200685338186
0.0200674131068
0.0200663187728
0.0200652622761
0.0200642536024
0.0200633011849
0.0200624117873
0.0200615903723
0.0200608398748
0.0200601605341
0.0200595475499
0.0200589827002
0.0200584053592
0.0200576163597
0.0200559740266
0.020051489992
0.0200383197562
0.0200004269528
0.0198972449193
0.0196358021032
0.0190245624754
0.0177167007039
0.0153443296068
0.0161822856357
0.0161847700938
0.0153875201362
0.0177806127688
0.0190771646516
0.0196749052376
0.0199268998368
0.020024446515
0.0200592060232
0.0200704650661
0.0200735082002
0.0200738067414
0.020073203015
0.0200722932094
0.0200712721545
0.0200702102958
0.0200691403359
0.0200680830232
0.020067054657
0.0200660691602
0.0200651385677
0.0200642730384
0.0200634807357
0.0200627676775
0.0200621375937
0.0200615917095
0.0200611281114
0.0200607394345
0.0200604044723
0.0200600589942
0.02005949887
0.0200580739695
0.0200537791983
0.0200407355389
0.0200028428718
0.0198994338483
0.0196374344134
0.0190252818578
0.0177164702081
0.0153442717743
0.0161825925528
0.0161847778635
0.0153881891009
0.0177807572645
0.0190767470413
0.0196741127367
0.0199259159882
0.0200233844131
0.0200581239139
0.0200693880145
0.0200724476487
0.0200727701614
0.020072198308
0.0200713301465
0.0200703627427
0.0200693687368
0.020068382853
0.0200674276185
0.0200665208171
0.0200656774958
0.0200649103822
0.020064229827
0.0200636436244
0.0200631568292
0.0200627715933
0.0200624869617
0.0200622982828
0.0200621949547
0.0200621520589
0.0200621010118
0.0200618319653
0.0200606854931
0.0200566385385
0.0200437750595
0.0200059257927
0.0199023117016
0.019639738623
0.0190265946957
0.017716689623
0.0153444945434
0.0161829598207
0.0161847851769
0.0153889210015
0.0177809161086
0.0190762841658
0.019673229517
0.0199248149757
0.020022193611
0.0200569113026
0.0200681843676
0.0200712680174
0.0200716248075
0.0200710978217
0.0200702872097
0.0200693926305
0.0200684893171
0.0200676144095
0.0200667925869
0.020066043438
0.0200653833783
0.02006482597
0.0200643817822
0.0200640581325
0.0200638588478
0.020063784079
0.0200638301116
0.0200639888342
0.020064245571
0.0200645707711
0.0200648905173
0.0200649881729
0.0200641936549
0.0200604637004
0.0200478407414
0.0200100773221
0.0199062661515
0.0196430692765
0.0190288003586
0.0177175831137
0.0153451129247
0.0161833970004
0.0161847922401
0.0153897210503
0.0177811052918
0.0190758059613
0.0196722992105
0.0199236511583
0.0200209357289
0.0200556345197
0.0200669237936
0.0200700418152
0.0200704460548
0.020069980115
0.0200692466327
0.0200684483344
0.0200676635387
0.0200669322916
0.020066281876
0.0200657340731
0.020065306963
0.0200650151317
0.020064869408
0.0200648765065
0.0200650387111
0.0200653536627
0.0200658141854
0.0200664078287
0.0200671148143
0.0200678998209
0.0200686823778
0.0200692377075
0.0200688833322
0.0200655529336
0.0200532417994
0.0200156132059
0.0199116117412
0.0196477275769
0.0190321700159
0.0177193695819
0.0153462457318
0.016183913239
0.016184799113
0.0153905921299
0.0177813334704
0.0190753272996
0.0196713423593
0.0199224495743
0.0200196391713
0.0200543246144
0.0200656397218
0.0200688049298
0.0200692725543
0.0200688870613
0.0200682540863
0.0200675799988
0.0200669468038
0.0200663980371
0.020065964124
0.0200656695097
0.0200655343139
0.0200655743794
0.0200658008593
0.0200662197265
0.0200668313558
0.0200676302694
0.0200686049895
0.0200697376689
0.0200710021851
0.0200723560659
0.0200737107966
0.0200748318158
0.020075022169
0.0200721891438
0.0200602744307
0.0200228394091
0.019918657944
0.0196540160062
0.019036982969
0.0177222801816
0.0153480199133
0.0161845171887
0.0161848057912
0.0153915357575
0.0177816066922
0.0190748585076
0.0196703727855
0.0199212267312
0.0200183226021
0.0200530022016
0.0200643547923
0.0200675822966
0.0200681319483
0.020067849532
0.0200673442945
0.020066826937
0.020066383854
0.020066062756
0.020065897862
0.0200659168543
0.0200661423484
0.0200665917417
0.020067276605
0.0200682020154
0.0200693660257
0.0200707593374
0.0200723651751
0.0200741590305
0.0200761069469
0.0200781576386
0.0200802127535
0.0200820259792
0.0200828834394
0.0200806622099
0.0200692431662
0.0200320717275
0.0199277258313
0.0196622507529
0.0190435339157
0.0177265608788
0.0153505704095
0.0161852166838
0.0161848122337
0.0153925522622
0.017781929586
0.0190744081964
0.019669402145
0.0199199965052
0.0200170016857
0.0200516846417
0.0200630882245
0.0200663953214
0.0200670482757
0.020066894747
0.0200665483181
0.0200662248152
0.0200660158336
0.0200659740744
0.0200661383182
0.020066540173
0.0200672053042
0.020068153031
0.0200693954751
0.0200709366807
0.0200727719085
0.0200748872241
0.0200772593891
0.0200798557386
0.0200826327006
0.0200855281751
0.0200884318051
0.0200910831655
0.0200927486255
0.0200912708532
0.020080462656
0.0200436388026
0.0199391539223
0.0196727795711
0.0190521576468
0.0177324932694
0.0153540424951
0.0161860184575
0.0161848183661
0.015393640763
0.0177823056047
0.0190739839671
0.0196684411284
0.0199187717357
0.0200156909253
0.0200503879958
0.0200618578019
0.02006526384
0.0200660438718
0.0200660480988
0.0200658952665
0.020065807227
0.0200658817229
0.0200661773871
0.0200667384664
0.0200676013058
0.0200687952807
0.0200703420965
0.0200722546234
0.0200745357338
0.0200771773776
0.0200801600492
0.0200834526823
0.0200870126696
0.0200907846612
0.0200946932796
0.0200986135549
0.0201022687554
0.0201049043191
0.0201043311255
0.0200943160545
0.0200580376516
0.0199536038974
0.0196869177411
0.019064431081
0.0177413856466
0.0153587441058
0.0161869316677
0.0161848240895
0.0153947989123
0.0177827369147
0.0190735924951
0.0196674997131
0.0199175645897
0.0200144040834
0.0200491274529
0.0200606802666
0.0200642064495
0.0200651396177
0.0200653332835
0.0200654122837
0.0200656055214
0.0200660179587
0.0200667152424
0.0200677481283
0.0200691586397
0.0200709806638
0.0200732388593
0.0200759471035
0.0200791069713
0.0200827065253
0.0200867196004
0.0200911056483
0.020095809882
0.020100762469
0.0201058725807
0.0201110016634
0.020115886041
0.0201198036246
0.020120870397
0.0201136721745
0.0200807542306
0.0199792537249
0.0197137517014
0.0190894290507
0.0177616799777
0.0153688794837
0.016188021413
0.0161848292152
0.0153960229509
0.0177832244376
0.0190732395459
0.0196665871691
0.0199163865609
0.0200131541606
0.0200479172659
0.0200595711913
0.0200632402991
0.0200643546178
0.0200647718372
0.0200651239192
0.0200656479606
0.0200664573439
0.0200676259503
0.0200692122249
0.0200712649734
0.0200738235272
0.0200769161763
0.0200805581339
0.0200847495583
0.0200894739405
0.0200946970696
0.0201003667094
0.0201064133279
0.0201127541612
0.020119325126
0.0201260782149
0.0201340556628
0.020142896415
0.0201494946048
0.020146835521
0.0201173371491
0.0200178722572
0.01975260107
0.0191259652424
0.0177929153207
0.0153894583867
0.0161895933036
0.0161848344272
0.015397306427
0.0177837673246
0.0190729297344
0.0196657118932
0.0199152483085
0.020011953204
0.0200467705091
0.0200585446674
0.0200623806782
0.0200637056599
0.0200643824366
0.0200650512318
0.0200659585829
0.0200672276163
0.0200689417959
0.0200711685911
0.0200739648388
0.0200773763828
0.0200814359334
0.0200861604252
0.0200915484124
0.0200975778098
0.0201042043098
0.0201113628573
0.0201189921534
0.0201271505094
0.0201374638394
0.0201506363306
0.0201650902459
0.020179096645
0.0201898272406
0.0201904272086
0.0201633385996
0.0200651583703
0.0197995412624
0.0191701624157
0.0178313848121
0.0154169341087
0.0161927755973
0.0161848388584
0.0153986449651
0.0177843645478
0.0190726668564
0.0196648813643
0.0199141594819
0.0200108120596
0.0200456987617
0.0200576129006
0.0200616405032
0.0200632065624
0.0200641800818
0.0200652107582
0.0200665559082
0.0200683498296
0.0200706870379
0.0200736455011
0.0200772914672
0.0200816784866
0.0200868445632
0.0200928086965
0.0200995672962
0.020107090941
0.0201153274769
0.0201242859768
0.0201349120798
0.0201499441471
0.0201677820616
0.0201868058921
0.0202058383877
0.0202236245736
0.0202376004342
0.0202409865585
0.0202160795826
0.0201190656263
0.0198529646378
0.0192205616113
0.0178754955833
0.0154488679967
0.0161975453161
0.0161848421511
0.0154000302334
0.0177850125674
0.0190724530832
0.0196641017325
0.0199131284005
0.0200097400412
0.0200447117243
0.0200567857481
0.0200610297493
0.0200628674778
0.0200641752225
0.0200656134235
0.020067451579
0.0200698366582
0.0200728758079
0.0200766590679
0.0200812635864
0.0200867518979
0.0200931681423
0.0201005333542
0.0201088404424
0.0201180591727
0.0201283118271
0.020142270863
0.0201614976847
0.0201834565356
0.0202065338083
0.0202298216906
0.0202526302534
0.0202739128052
0.0202911532417
0.0202974843348
0.0202749550643
0.0201792523663
0.0199126724536
0.0192770136956
0.0179250503601
0.0154847180134
0.0162029682934
0.0161848449522
0.0154014503341
0.0177857054328
0.0190722887624
0.0196633775427
0.0199121616952
0.0200087445066
0.0200438167252
0.0200560701446
0.0200605547739
0.0200626940868
0.0200643727933
0.0200662633689
0.0200686489274
0.0200716906559
0.0200755099635
0.0200802105998
0.0200858821555
0.0200925973889
0.0201004070516
0.0201093333341
0.0201193750933
0.0201307629158
0.020147757025
0.0201705190696
0.0201961230315
0.0202229813701
0.020250315587
0.0202776178672
0.0203043262698
0.0203293952714
0.0203502397089
0.0203598409836
0.0203399533117
0.0202457096817
0.0199786011411
0.0193393288927
0.0179796667798
0.0155239990606
0.0162088269441
0.0161848468305
0.0154028945704
0.0177864362678
0.0190721726102
0.019662711359
0.0199112636758
0.0200078300688
0.0200430178231
0.0200554691106
0.0200602172333
0.0200626864012
0.0200647708767
0.0200671564442
0.0200701412467
0.0200739022362
0.0200785767102
0.0200842837632
0.0200911269066
0.0200991900258
0.0201085301132
0.0201191795888
0.0201314364381
0.0201504236785
0.0201759788913
0.020204759889
0.0202351415431
0.0202663981293
0.0202980698895
0.0203297069315
0.0203607074852
0.0203899531127
0.0204147603082
0.0204279443162
0.0204109452754
0.0203183058201
0.0200506435701
0.0194074512913
0.0180392472355
0.0155663878177
0.0162150313463
0.0161848476938
0.0154043500454
0.0177871958137
0.0190721004456
0.0196621021517
0.019910434323
0.0200069962984
0.020042313316
0.0200549791291
0.02006001135
0.0200628359257
0.0200653577457
0.0200682771037
0.0200719085116
0.0200764461603
0.0200820447883
0.0200888403593
0.0200969514796
0.0201064732775
0.0201174748333
0.0201302327887
0.0201498121601
0.0201773118629
0.0202087288568
0.020242266512
0.0202772002999
0.0203130819356
0.0203494667022
0.0203858362405
0.0204215053731
0.0204552723368
0.0204843531554
0.0205013930312
0.0204875058958
0.020396619542
0.0201284414146
0.0194812195129
0.0181041420852
0.0156128215295
0.016221715317
0.0161848473552
0.0154058025048
0.0177879713634
0.0190720620132
0.0196615401345
0.0199096626138
0.0200062300727
0.0200416875265
0.0200545816075
0.0200599151708
0.0200631167633
0.0200661028259
0.0200695892145
0.0200739080039
0.0200792719442
0.0200858545955
0.0200938100247
0.020103272431
0.0201143505257
0.0201272645371
0.0201459766625
0.0201743391769
0.0202077177823
0.0202438808279
0.0202820495026
0.0203217888359
0.020362649675
0.0204041028214
0.0204455357168
0.0204861767215
0.0205247412351
0.0205583437894
0.020579454855
0.020568849641
0.0204798150362
0.0202111004903
0.0195596202956
0.0181730838376
0.0156620407162
0.0162287255078
0.0161848454567
0.0154072351831
0.0177887411572
0.0190720288658
0.0196609882224
0.0199089031366
0.020005479167
0.0200410827086
0.0200542138721
0.0200598610188
0.0200634556744
0.020066926409
0.0200710054192
0.0200760432918
0.0200822724057
0.0200898862142
0.0200990575634
0.0201099366278
0.0201226966986
0.020139497569
0.0201672466037
0.0202016977245
0.0202397869717
0.0202805470115
0.0203235584037
0.0203683961793
0.0204145232826
0.020461309635
0.0205080481272
0.0205538809567
0.020597438991
0.0206357316285
0.020661047367
0.0206538080928
0.0205666331009
0.020297270153
0.0196412419006
0.0182446945949
0.015712844251
0.0162358476623
0.0161848410811
0.0154086238931
0.0177894532054
0.0190719107638
0.0196603174629
0.0199079964427
0.0200045635864
0.0200403055506
0.0200536731245
0.0200596379443
0.0200636334133
0.0200675999668
0.0200722863947
0.0200780623421
0.0200851805013
0.02009385479
0.0201042767947
0.0201166220719
0.0201314939527
0.0201564909303
0.0201908163958
0.0202299709019
0.0202725110302
0.0203179946223
0.0203660569944
0.0204161945414
0.0204677695447
0.0205200525683
0.0205722426907
0.0206233945358
0.0206720523471
0.020715117903
0.0207446954423
0.0207408512436
0.0206555341697
0.0203854813093
0.0197248008571
0.0183179999506
0.0157647358855
0.0162430250508
0.0161848312752
0.0154099158392
0.0177899467607
0.0190714039403
0.0196590910914
0.0199064093666
0.0200028909274
0.02003872969
0.0200523123438
0.0200585836802
0.0200629736416
0.0200674321617
0.0200727237801
0.0200792370516
0.0200872450671
0.02009698205
0.0201086594125
0.0201225772407
0.0201426829049
0.0201750798059
0.0202142357711
0.0202576192302
0.0203046109393
0.0203549212155
0.0204081319659
0.020463646854
0.0205207310953
0.0205785577964
0.0206362320357
0.0206927203101
0.020746480442
0.0207943094479
0.020828136665
0.0208276921115
0.0207442833467
0.0204736607014
0.0198085065139
0.0183915971373
0.0158168724155
0.016250158841
0.0161848051889
0.0154109454282
0.0177896744168
0.0190694896129
0.0196558820128
0.0199024371274
0.0199985963972
0.020034405444
0.0200481350841
0.0200546706811
0.0200594221178
0.0200643413253
0.0200702053823
0.0200774203222
0.0200862787514
0.020097034137
0.0201099279081
0.0201258444018
0.0201535267774
0.0201912131019
0.0202343742271
0.0202817983326
0.0203332059439
0.02038830526
0.0204466015475
0.0205074112463
0.0205699071363
0.0206331659649
0.0206962001192
0.0207578902936
0.0208166134887
0.0208690764525
0.0209070672089
0.0209100443466
0.020828775224
0.020558126747
0.0198893758865
0.0184634058777
0.0158681898118
0.0162571334081
0.0161847200698
0.0154111189784
0.0177867706593
0.0190628755938
0.0196462547479
0.0198909155257
0.0199861200587
0.0200215753303
0.020035281956
0.0200419756712
0.0200470025852
0.0200522975373
0.0200586420117
0.0200664556849
0.0200760482045
0.020087691313
0.0201017319929
0.0201219602169
0.0201557522708
0.0201973455709
0.0202440147042
0.0202952288109
0.0203508116976
0.0204104214304
0.0204734921564
0.0205392622437
0.0206068166804
0.0206751379975
0.0207431514503
0.0208096605902
0.0208729786314
0.020929760699
0.0209717387769
0.0209782690879
0.0208998495655
0.0206307714203
0.0199610425411
0.0185293374086
0.0159169918728
0.0162638017073
0.0161844065743
0.0154082946149
0.0177751433814
0.0190415374885
0.0196173093394
0.0198572439804
0.0199499973211
0.0199843701862
0.0199976873656
0.0200043150565
0.0200094348322
0.0200149224309
0.0200215464439
0.0200297321328
0.0200398011477
0.0200520434133
0.020067035288
0.0200929517032
0.0201308619737
0.0201753478623
0.0202249179798
0.0202793590913
0.0203384965456
0.0204019333254
0.0204690479798
0.0205390132087
0.0206108326259
0.0206834002837
0.0207555689498
0.0208260854366
0.020893236633
0.0209537087291
0.0209993649645
0.0210098379178
0.0209359964224
0.0206723683973
0.0200082456964
0.0185796585256
0.0159595824294
0.0162698670478
0.0161832005826
0.0153950430872
0.0177361209651
0.0189771473397
0.0195344079021
0.0197633857806
0.0198506034607
0.0198824773048
0.0198947251981
0.019900879166
0.0199057566689
0.0199110954773
0.0199176200593
0.0199257469283
0.0199358011277
0.0199481061279
0.0199644735127
0.0199947297801
0.0200349220249
0.0200810971566
0.0201324801803
0.0201889858352
0.0202504027981
0.0203162909931
0.020386000997
0.0204586593731
0.0205331967621
0.0206084331758
0.0206831804095
0.0207561661118
0.0208257175981
0.0208887021792
0.0209374616678
0.0209526429582
0.0208868258206
0.0206366951319
0.0199926490958
0.0185882322077
0.0159850066866
0.016274339604
0.0161786112627
0.0153472447754
0.0176171548214
0.0187968648866
0.0193132715694
0.0195196673923
0.0195960538225
0.0196231748023
0.0196333357051
0.0196384189335
0.0196425548642
0.0196472238006
0.0196530604811
0.0196604514409
0.0196697125272
0.0196812307902
0.0196988800031
0.0197308587247
0.0197713278459
0.0198174547343
0.0198688376639
0.0199254289096
0.0199869667498
0.0200529830062
0.0201228558246
0.0201956982096
0.0202703723084
0.0203456570302
0.0204203786534
0.0204933014779
0.020562889341
0.0206264088169
0.0206772110648
0.020698167356
0.0206459828743
0.0204234602092
0.0198270017288
0.0184909665977
0.0159630487931
0.0162739926285
0.0161619575385
0.0151932532186
0.0172847964177
0.0183326520908
0.0187702506409
0.0189366767676
0.0189952118661
0.0190149152038
0.0190218843535
0.0190252527964
0.0190280779285
0.0190314527439
0.0190358737285
0.0190416724287
0.0190491371939
0.0190586787978
0.0190750843049
0.0191055377898
0.0191437289166
0.0191872554829
0.0192358643323
0.0192895110171
0.0193478798381
0.0194104676554
0.0194768069529
0.0195460367679
0.0196169303061
0.0196883057458
0.0197590847097
0.0198281349698
0.0198941622566
0.019955066574
0.0200058241615
0.0200331028956
0.0200013312635
0.0198263824604
0.0193216264718
0.0181350044448
0.0158091981415
0.0162584276495
0.0161081293192
0.0147496925604
0.0164451341078
0.0172475107952
0.0175566249231
0.0176647636628
0.0176997086095
0.0177104276889
0.0177137789919
0.0177152295414
0.0177165203991
0.0177182910662
0.0177208705462
0.0177245108337
0.0177294472827
0.0177360368749
0.0177485257732
0.0177742340706
0.0178072984522
0.0178452009325
0.0178876494399
0.0179345962855
0.0179856978807
0.0180402941536
0.0180983489983
0.0181590670953
0.0182210840817
0.0182834127439
0.0183451617471
0.0184053751064
0.0184630824656
0.0185169610972
0.0185640417895
0.0185961738501
0.0185895585979
0.0184829955684
0.0181269749438
0.0172158627677
0.0153332730871
0.0162009302991
0.0159831859762
0.0137912638093
0.0147243739525
0.0151418786101
0.0152826668629
0.0153257692197
0.0153381337982
0.0153416159676
0.015342724996
0.0153433544828
0.0153440806556
0.0153451371201
0.0153466708902
0.0153488110194
0.0153516832643
0.0153554287227
0.0153606670457
0.0153754332099
0.0153988822459
0.0154263670082
0.0154571215559
0.0154910511056
0.0155278887667
0.0155667951787
0.0156081956222
0.0156516798976
0.015695767393
0.0157399099326
0.0157835583618
0.0158260745185
0.0158669036039
0.0159055002604
0.0159408942967
0.0159703669551
0.0159844201404
0.0159548065604
0.0157998219314
0.0153295357668
0.0142961314633
0.0160651176052
0.0160104513791
0.0159979136114
0.0161135921769
0.0161616435601
0.0161759866788
0.0161798871989
0.0161810085999
0.0161814603837
0.016181783208
0.0161821152528
0.0161824965459
0.016182943553
0.0161834670155
0.0161840757033
0.0161847770253
0.0161855775909
0.0161864978091
0.0161877086856
0.0161896060732
0.0161932013347
0.016197900169
0.0162030405562
0.01620855457
0.0162142772451
0.0162202575018
0.0162264918119
0.0162327231914
0.0162388700431
0.0162448732627
0.0162506516249
0.0162561463823
0.0162613180526
0.0162661180694
0.0162703770768
0.0162732949836
0.0162719253717
0.0162562818197
0.0161997099301
0.0160645911849
0.0160224397234
0.0162043835646
0.017489976319
0.0181895355076
0.0184603150507
0.0185506878707
0.0185785850356
0.0185872086619
0.0185904771472
0.0185924331945
0.0185941930426
0.0185960370588
0.0185980342372
0.0186001966182
0.018602523264
0.0186050086638
0.0186076452646
0.018610423613
0.0186133325125
0.0186163587106
0.0186194878425
0.0186226967809
0.0186259734088
0.0186293008068
0.0186326478519
0.018635994812
0.0186393185153
0.0186425953875
0.0186458026333
0.0186489190147
0.0186519237928
0.0186547880999
0.0186574311295
0.0186595443462
0.0186599325954
0.0186542353152
0.0186277340016
0.0185352468502
0.0182555761562
0.0175354932951
0.0162092199735
0.0174875047301
0.0268377130955
0.0303635472865
0.0317723618574
0.032298989788
0.0324809171829
0.0325395713951
0.0325578385941
0.0325637945761
0.03256625709
0.0325678144167
0.0325692044544
0.0325706333879
0.0325721631071
0.0325738141066
0.0325755941128
0.0325775051607
0.0325795457575
0.0325817112258
0.0325839943042
0.0325863833952
0.0325888645934
0.0325914261857
0.0325940469887
0.0325967072556
0.0325993838085
0.0326020511202
0.0326046789972
0.0326072247846
0.03260960182
0.0326115621933
0.0326122765369
0.0326088978542
0.0325919874372
0.0325319663172
0.0323433734627
0.0318008706783
0.0303653706347
0.0268055304966
0.0174699790102
0.0181857020448
0.0303610172491
0.0352529792213
0.0373964528434
0.0382903247266
0.0386364777452
0.0387604077321
0.038801747384
0.0388147253529
0.0388186108189
0.0388197248261
0.0388200311719
0.0388201167193
0.0388201602482
0.0388202215584
0.0388203259573
0.038820487356
0.0388207148555
0.0388210143948
0.0388213894997
0.038821840589
0.0388223671197
0.0388229665399
0.0388236320286
0.0388243554746
0.0388251253185
0.0388259250941
0.0388267260565
0.038827461221
0.0388279324948
0.0388274930216
0.0388240151823
0.0388107377377
0.0387674373507
0.0386379531265
0.0382799914465
0.0373649994128
0.0351921313777
0.0302704942162
0.0181519361025
0.0184558878566
0.0317682227237
0.0373946286864
0.0400012452255
0.0411600760795
0.0416406663148
0.0418248115495
0.0418900157527
0.0419112461923
0.041917347589
0.0419185049548
0.0419180879955
0.0419171575159
0.0419160451768
0.0419148610716
0.041913649975
0.0419124365917
0.0419112386486
0.0419100705015
0.0419089442949
0.0419078700737
0.0419068563412
0.0419059098558
0.0419050342111
0.0419042309571
0.0419034976095
0.041902823815
0.0419021768071
0.0419014513574
0.0419003002679
0.0418975870072
0.0418897232471
0.0418659668831
0.0417963584299
0.0416039123206
0.0411087823028
0.03992707952
0.037292221778
0.0316432556724
0.01841338247
0.0185460555762
0.0322939547383
0.0382873422374
0.0411588292682
0.0424852972537
0.0430587524534
0.043287993857
0.0433724955181
0.043400961297
0.0434092787297
0.043410734138
0.0434099131014
0.0434083133848
0.0434064149614
0.0434043779247
0.0434022657241
0.0434001123569
0.0433979422539
0.0433957759584
0.0433936318322
0.0433915264254
0.0433894747104
0.0433874897907
0.0433855823554
0.0433837604551
0.0433820273726
0.0433803754048
0.0433787640715
0.0433770465983
0.0433747297453
0.0433702284533
0.0433587023802
0.0433262414559
0.043235780406
0.0429966391775
0.0424073584064
0.0410578002616
0.0381601923138
0.0321503248869
0.0184994714095
0.0185739146994
0.0324754580142
0.0386328632859
0.0416386880495
0.0430579879696
0.0436866216521
0.0439443585605
0.0440417728155
0.0440753789356
0.0440854195892
0.0440872317146
0.0440862520546
0.044084300017
0.0440819696962
0.0440794609887
0.0440768522968
0.0440741847001
0.04407148732
0.044068784713
0.0440660990488
0.0440634506569
0.0440608581397
0.044058338185
0.0440559050998
0.0440535701697
0.0440513391147
0.0440492040148
0.044047115701
0.0440448921396
0.0440419261457
0.044036301561
0.0440223014191
0.0439839218837