/*--------------------------------*- C++ -*----------------------------------*\
| =========                 |                                                 |
| \\      /  F ield         | foam-extend: Open Source CFD                    |
|  \\    /   O peration     | Version:     4.1                                |
|   \\  /    A nd           | Web:         http://www.foam-extend.org         |
|    \\/     M anipulation  |                                                 |
\*---------------------------------------------------------------------------*/
FoamFile
{
    version     2.0;
    format      ascii;
    class       volScalarField;
    location    "0.3";
    object      nut;
}
// * * * * * * * * * * * * * * * * * * * * * * * * * * * * * * * * * * * * * //

dimensions      [0 2 -1 0 0 0 0];

internalField   nonuniform List<scalar> 
96000
(
0.00033782528534
0.000337849149739
0.000339311164876
0.000339938239435
0.000340134022522
0.000340188696018
0.000340203342614
0.000340207420144
0.00034020883103
0.000340209606057
0.000340210251679
0.000340210893398
0.000340211562156
0.000340212265082
0.000340213002679
0.000340213773077
0.000340214573177
0.000340215398979
0.000340216245833
0.000340217107537
0.000340217981318
0.000340218864041
0.000340219739756
0.000340220609043
0.00034022146364
0.000340222296794
0.000340223101723
0.000340223871054
0.00034022459562
0.00034022525932
0.000340225818256
0.0003402261169
0.000340225552318
0.000340221782174
0.000340205888286
0.000340145555772
0.000339932440676
0.000339264203967
0.000337738227856
0.000337824004855
0.000337855646161
0.000210012177252
0.000217898522694
0.000221467498564
0.000222728006035
0.000223135084172
0.000223259240248
0.000223297191114
0.000223310657164
0.000223317767386
0.00022332352953
0.000223329293591
0.000223335410713
0.000223341974384
0.000223349005355
0.000223356501203
0.000223364447472
0.000223372821048
0.000223381589914
0.00022339071493
0.000223400141449
0.000223409821426
0.000223419703413
0.000223429705068
0.000223439757423
0.000223449783399
0.000223459702673
0.00022346942948
0.000223478861807
0.000223487827574
0.000223495870336
0.000223501427934
0.000223498871806
0.00022346840232
0.000223343849651
0.000222919339168
0.000221608835051
0.000217951601143
0.000210033565636
0.000337889772162
0.000339313384561
0.000217889997963
0.000231325737543
0.000237641592123
0.000240156309797
0.000241076818063
0.000241388991816
0.000241488598559
0.00024151936088
0.000241529258918
0.00024153317775
0.000241535520187
0.000241537545905
0.00024153962421
0.000241541873325
0.000241544339559
0.000241547044403
0.000241549997608
0.000241553200183
0.000241556646203
0.000241560320693
0.000241564207371
0.00024156828367
0.000241572512953
0.000241576857973
0.000241581273678
0.000241585705356
0.000241590074138
0.000241594223674
0.000241597719322
0.000241599131282
0.00024159358498
0.000241564865379
0.000241461809341
0.000241133713452
0.000240173487034
0.000237581400057
0.000231159592773
0.000217739810779
0.000339302789239
0.000339938135119
0.000221453145845
0.000237634352954
0.000245599021759
0.000249007275431
0.000250353855374
0.000250844721602
0.000251010465652
0.000251062196807
0.000251076565608
0.000251079239688
0.000251078321639
0.000251076263247
0.000251073809723
0.000251071206418
0.000251068554973
0.000251065912954
0.000251063321947
0.000251060815181
0.000251058420116
0.000251056158579
0.000251054048641
0.000251052103605
0.000251050328352
0.000251048723268
0.0002510472796
0.000251045971524
0.000251044724519
0.000251043303236
0.000251040917317
0.000251034895994
0.000251016463926
0.00025095813854
0.000250779279051
0.00025026101664
0.000248862248076
0.000245367636536
0.000237303472192
0.000221190771548
0.000339901793066
0.000340133055599
0.000222710767385
0.000240144768896
0.000249002506996
0.000252958457162
0.000254594765583
0.000255218880938
0.000255438353325
0.000255508801583
0.000255528073781
0.000255530578282
0.000255527657433
0.000255522875495
0.000255517344539
0.000255511434414
0.000255505297128
0.000255499019324
0.000255492666257
0.000255486294184
0.00025547995412
0.000255473692644
0.000255467552528
0.000255461571999
0.000255455783319
0.000255450212642
0.000255444875281
0.000255439762089
0.000255434790544
0.000255429634991
0.00025542315188
0.000255411522618
0.000255382599804
0.000255299880672
0.000255061183707
0.000254403126457
0.000252709080282
0.000248666064685
0.000239720620975
0.000222393269054
0.000340087006474
0.000340187468123
0.000223116651661
0.000241063120697
0.000250346457833
0.000254591985313
0.000256394511899
0.000257100607851
0.0002573553347
0.000257438955785
0.000257462162314
0.000257465049651
0.000257461198624
0.000257454983159
0.000257447794218
0.000257440098778
0.000257432087474
0.000257423867669
0.000257415520111
0.000257407115223
0.000257398717874
0.000257390388581
0.000257382183754
0.00025737415522
0.000257366349083
0.000257358804362
0.00025735154736
0.000257344573746
0.000257337785946
0.000257330779368
0.000257322135656
0.000257307197376
0.000257271487874
0.000257172643895
0.000256895467188
0.000256152032087
0.000254289224188
0.000249957236932
0.000240593953073
0.000222775069784
0.000340138861376
0.000340202053648
0.000223240321402
0.000241374224843
0.000250835905049
0.00025521452491
0.000257098986333
0.000257847901742
0.000258122034459
0.000258213322536
0.000258239040704
0.000258242379754
0.000258238203025
0.000258231370739
0.000258223449485
0.000258214970463
0.000258206150887
0.000258197112338
0.000258187945662
0.000258178729795
0.000258169537265
0.000258160435587
0.000258151487419
0.000258142750094
0.000258134274627
0.000258126103762
0.000258118265684
0.000258110753282
0.000258103452562
0.000258095900957
0.000258086500121
0.000258070076392
0.000258030792063
0.000257923036946
0.000257624841041
0.000256836512905
0.000254889619361
0.000250423310701
0.000240883511694
0.000222886581099
0.000340153586197
0.000340206133154
0.000223278041731
0.000241473224622
0.000251000796285
0.000255433018457
0.000257352685935
0.000258120995276
0.000258404352247
0.000258499482248
0.000258526573876
0.000258530266737
0.000258526055294
0.00025851905161
0.00025851091916
0.000258502227771
0.000258493212439
0.000258484005021
0.000258474703599
0.000258465392725
0.000258456149291
0.000258447043999
0.000258438141461
0.000258429499694
0.000258421169137
0.000258413190484
0.000258405587992
0.000258398347146
0.00025839133795
0.000258384057616
0.000258374799929
0.000258358104626
0.000258317418998
0.000258205511749
0.000257897227037
0.000257087749961
0.000255102867989
0.000250579380529
0.000240970875772
0.000222915903151
0.000340158847426
0.000340207567008
0.00022329135359
0.000241503529083
0.000251051867625
0.000255502698361
0.00025743549419
0.000258211458277
0.000258498656754
0.000258595488368
0.000258623256162
0.000258627189764
0.000258623057274
0.000258616088281
0.000258607996624
0.000258599375648
0.000258590473414
0.000258581430459
0.000258572351245
0.000258563325024
0.000258554431828
0.000258545743892
0.000258537325659
0.000258529233204
0.000258521513231
0.000258514200832
0.000258507312636
0.000258500823664
0.000258494587922
0.000258488072833
0.00025847950613
0.000258463269456
0.000258422440915
0.000258308993919
0.000257996297449
0.000257177326075
0.000255175730752
0.000250628150679
0.000240993049923
0.000222921554871
0.000340162021079
0.000340208375746
0.000223298347208
0.00024151301214
0.000251065620258
0.000255521244502
0.000257457929859
0.000258236395212
0.00025852497081
0.000258622483744
0.000258650579534
0.000258654690126
0.000258650689316
0.000258643859194
0.000258635941216
0.000258627545225
0.000258618930703
0.000258610246851
0.000258601604811
0.000258593098704
0.000258584811536
0.000258576816464
0.00025856917664
0.000258561944556
0.000258555160991
0.000258548852764
0.000258543025877
0.000258537642057
0.000258532537978
0.000258527155134
0.000258519674233
0.000258504377868
0.00025846412949
0.000258350460624
0.000258035958065
0.000257212475038
0.000255202699176
0.000250643393962
0.000240996154358
0.000222921125594
0.000340165047635
0.000340209064686
0.000223304036726
0.000241516536407
0.000251067675713
0.000255523006396
0.000257460025095
0.000258238933925
0.000258527873548
0.00025862564123
0.000258653923797
0.000258658198003
0.000258654373283
0.000258647756889
0.000258640108785
0.000258632053184
0.000258623861284
0.000258615691933
0.000258607663967
0.000258599877132
0.000258592417737
0.0002585853597
0.000258578764158
0.000258572678639
0.000258567135974
0.000258562152097
0.000258557719286
0.000258553782705
0.000258550158925
0.000258546262901
0.000258540233896
0.000258526276472
0.000258487095107
0.000258373902333
0.000258058730568
0.000257232635747
0.000255217620875
0.000250650456345
0.00024099513762
0.000222919962102
0.000340168488126
0.000340209760579
0.000223309795679
0.00024151851737
0.000251066137615
0.000255519320679
0.000257455352879
0.000258233930706
0.000258522854867
0.000258620727888
0.000258649166077
0.000258653631315
0.000258650042275
0.000258643721705
0.00025863644574
0.000258628853473
0.000258621229299
0.000258613743365
0.000258606523675
0.000258599676695
0.000258593292667
0.000258587446259
0.000258582195873
0.000258577582592
0.000258573629016
0.000258570337154
0.000258567681904
0.000258565587764
0.000258563847049
0.000258561844648
0.000258557676747
0.000258545472391
0.000258507787632
0.000258395539026
0.000258080241959
0.000257252188778
0.000255232682566
0.000250658345024
0.000240995345665
0.0002229201027
0.000340172564764
0.000340210496204
0.000223316002686
0.000241520238198
0.000251063474986
0.000255513765332
0.000257448300405
0.000258226260757
0.00025851504497
0.00025861299563
0.00025864161586
0.000258646330655
0.000258643059216
0.000258637137709
0.000258630359298
0.000258623379945
0.000258616499518
0.000258609901643
0.000258603725395
0.000258598085405
0.000258593076651
0.000258588774596
0.000258585234058
0.00025858248792
0.000258580545825
0.000258579392189
0.000258578980011
0.000258579207972
0.000258579838595
0.000258580221047
0.000258578402768
0.000258568430991
0.000258532704189
0.000258421824858
0.000258106754183
0.000257276947742
0.000255252896294
0.000250670923809
0.000240999325572
0.000222922727662
0.000340177420585
0.000340211280581
0.000223322779912
0.000241522095497
0.000251060456252
0.000255507473598
0.000257440280319
0.000258217514797
0.000258506135349
0.000258604191334
0.00025863305372
0.00025863810227
0.000258635254815
0.000258629862105
0.00025862373682
0.000258617554709
0.000258611634051
0.000258606174714
0.0002586013292
0.000258597222073
0.000258593954035
0.000258591601437
0.000258590214584
0.000258589816036
0.000258590399167
0.000258591926314
0.000258594323037
0.000258597455805
0.000258601050333
0.000258604412561
0.000258605532831
0.000258598365592
0.000258565133389
0.000258456088746
0.000258141570401
0.000257310080451
0.00025528114432
0.000250690632286
0.000241008946547
0.000222928858464
0.000340183179014
0.000340212116047
0.000223330176632
0.000241524235818
0.000251057351993
0.000255500839241
0.000257431784606
0.000258208252074
0.000258496728462
0.000258594946885
0.000258624135239
0.00025862962466
0.000258627332465
0.000258622626721
0.00025861734311
0.000258612180846
0.000258607480272
0.000258603460855
0.000258600291378
0.000258598108491
0.000258597019926
0.000258597103115
0.000258598402761
0.000258600928586
0.000258604653728
0.000258609513035
0.000258615397895
0.000258622134736
0.000258629403814
0.000258636458495
0.000258641221419
0.00025863754011
0.000258607437577
0.00025850077095
0.000258187172013
0.000257354048717
0.000255319780941
0.000250719607626
0.00024102598816
0.000222939532488
0.000340189956922
0.00034021300243
0.000223338218236
0.000241526733866
0.000251054289863
0.00025549403951
0.000257423030708
0.000258198720162
0.000258487094915
0.000258585552712
0.000258615170557
0.00025862122963
0.000258619648957
0.000258615817619
0.000258611598593
0.000258607719047
0.000258604545744
0.000258602321755
0.000258601235613
0.000258601438764
0.000258603047599
0.000258606140965
0.000258610756756
0.000258616888953
0.000258624485726
0.000258633447973
0.000258643624842
0.000258654793291
0.000258666577642
0.000258678167307
0.000258687404383
0.000258688012566
0.000258661787703
0.000258558139382
0.000258245896216
0.000257411212812
0.000255371118096
0.000250760011762
0.000241052304536
0.000222955847844
0.000340197864339
0.000340213938152
0.000223346916784
0.000241529638915
0.000251051353524
0.000255487186942
0.000257414153911
0.000258189072613
0.000258477404357
0.000258576194662
0.000258606363482
0.000258613141926
0.000258612453852
0.000258609713865
0.000258606817367
0.000258604524743
0.00025860323429
0.000258603217505
0.000258604686878
0.000258607811945
0.000258612719838
0.000258619491344
0.000258628156225
0.000258638689415
0.000258651008665
0.000258664973283
0.000258680380559
0.000258696946687
0.000258714227471
0.000258731334692
0.000258746014567
0.000258751847214
0.000258730369862
0.000258630486611
0.000258320116399
0.000257483984492
0.000255437541826
0.000250814102783
0.000241089852951
0.000222978963732
0.000340207000823
0.000340214920539
0.000223356273258
0.000241532986943
0.000251048610044
0.000255480372758
0.000257405263465
0.000258179433237
0.000258467794141
0.000258567024606
0.000258597882734
0.000258605550408
0.000258605960255
0.000258604557743
0.000258603276621
0.000258602916566
0.000258603913471
0.000258606572935
0.000258611136447
0.000258617795634
0.00025862669094
0.000258637905894
0.000258651460855
0.00025866730797
0.000258685328233
0.000258705330434
0.000258727048607
0.000258750124665
0.000258774030688
0.000258797784241
0.000258819017343
0.000258831144008
0.000258815409972
0.000258720162499
0.000258412299977
0.000257574931596
0.000255521869618
0.000250884712765
0.000241141105553
0.000223010157012
0.000340217453958
0.000340215945831
0.000223366277633
0.000241536803354
0.000251046116991
0.000255473678674
0.000257396458206
0.000258169914175
0.000258458388635
0.000258558180175
0.00025858988156
0.000258598627252
0.000258600363415
0.000258600572497
0.00025860123333
0.000258603191923
0.000258606928759
0.000258612790206
0.000258621052678
0.00025863193466
0.000258645593164
0.000258662115674
0.000258681511841
0.000258703706856
0.000258728537666
0.000258755752008
0.000258785006936
0.000258815853457
0.000258847661112
0.000258879333745
0.000258908379393
0.000258928045619
0.00025891939859
0.000258830590222
0.000258527243894
0.000257690994854
0.000255644841866
0.000250996509136
0.000241227333826
0.000223053121542
0.000340229377682
0.000340217009139
0.000223376906404
0.000241541102153
0.00025104392352
0.000255467179606
0.000257387830408
0.000258160620374
0.000258449303874
0.000258549789213
0.000258582501753
0.000258592531333
0.000258595843224
0.000258597963735
0.000258600924416
0.000258605625588
0.00025861260033
0.000258622243447
0.000258634873155
0.000258650740557
0.000258670023199
0.000258692814149
0.000258719111057
0.000258748807446
0.000258781687579
0.000258817425094
0.00025885558246
0.000258895599313
0.000258936735296
0.000258977808936
0.000259016757111
0.000259047031411
0.000259057727551
0.000259002381583
0.000258732121911
0.000257921957698
0.000255878638064
0.000251216747485
0.000241416516991
0.000223163709054
0.000340244009669
0.000340218103798
0.000223388123362
0.000241545886678
0.000251042070833
0.000255460944048
0.000257379466142
0.000258151649836
0.00025844064752
0.000258541969284
0.000258575872528
0.000258587406261
0.000258592561174
0.000258596915112
0.000258602560839
0.0002586104619
0.000258621212979
0.000258635265991
0.000258652988975
0.000258674672342
0.0002587005189
0.000258730629351
0.000258764987943
0.000258803450684
0.000258845737666
0.000258891430572
0.000258939981551
0.000258990763193
0.000259043636756
0.000259098220349
0.000259175543426
0.000259253199609
0.000259304734801
0.0002592739204
0.000259022129968
0.000258222323203
0.000256178672979
0.000251501968894
0.000241670370346
0.000223348690881
0.000340265614881
0.000340219231397
0.000223399866718
0.000241551144697
0.0002510405901
0.000255455032766
0.00025737144409
0.000258143092251
0.000258432517132
0.000258534825414
0.000258570107528
0.000258583376406
0.000258590655189
0.000258597581682
0.000258606319124
0.000258617904079
0.000258633002777
0.000258652134011
0.000258675724694
0.000258704112178
0.000258737529977
0.000258776088693
0.000258819756802
0.000258868343618
0.000258921488064
0.000258978688879
0.00025903969523
0.000259105575657
0.000259202762082
0.000259315578583
0.000259430969031
0.000259537861664
0.000259613992588
0.000259603349848
0.000259366703001
0.000258574825506
0.000256528944296
0.000251835969932
0.000241971692226
0.00022357945791
0.000340309259657
0.000340220377611
0.000223412100406
0.000241556864766
0.00025103950609
0.000255449498764
0.000257363834311
0.000258135027145
0.000258424997766
0.000258528447027
0.000258565300932
0.000258580541975
0.00025859023345
0.000258600082112
0.000258612331605
0.000258628102052
0.000258648142031
0.000258673047961
0.000258703315597
0.000258739337687
0.000258781384296
0.00025882957733
0.000258883863245
0.000258943989747
0.000259009573269
0.000259081357023
0.000259176261586
0.000259307011765
0.000259449198701
0.00025959534951
0.000259738874667
0.000259870422017
0.000259968578861
0.000259977169339
0.000259755600105
0.000258971811763
0.000256923486184
0.000252213132035
0.000242313536363
0.000223843464836
0.000340369398701
0.000340221531368
0.000223424746564
0.000241563011819
0.000251038829119
0.000255444383509
0.000257356695499
0.000258127521157
0.0002584181589
0.000258522904287
0.000258561523009
0.000258578973587
0.000258591367656
0.000258604490346
0.000258620676082
0.000258641139615
0.000258666723438
0.000258698113028
0.000258735883659
0.000258780492329
0.000258832250696
0.000258891289169
0.000258957520181
0.000259030744578
0.000259113034088
0.000259240429321
0.000259397426731
0.000259566699645
0.000259740860858
0.000259915112208
0.00026008471137
0.000260240965104
0.000260362351111
0.000260391811231
0.000260186899386
0.000259412288393
0.000257361700892
0.000252632890938
0.00024269504491
0.000224137960637
0.000340437041689
0.000340222690744
0.000223437694729
0.000241569530127
0.000251038554004
0.000255439714728
0.000257350071937
0.000258120624413
0.000258412050223
0.000258518243254
0.000258558814499
0.000258578705692
0.000258594085258
0.00025861082629
0.000258631364594
0.000258657020924
0.000258688743588
0.000258727318959
0.000258773412713
0.00025882755415
0.00025889009742
0.000258961172665
0.000259040809498
0.000259132179535
0.00025928542587
0.000259465640427
0.000259659802281
0.000259860646105
0.000260064059143
0.000260266700398
0.000260464142435
0.000260647450811
0.000260794485301
0.000260847008499
0.00026066046638
0.000259895946098
0.000257842743468
0.000253093227933
0.000243112129814
0.000224457582279
0.000340509460293
0.000340223843054
0.000223450849529
0.000241576357248
0.000251038661712
0.000255435502859
0.000257343987542
0.000258114363099
0.000258406693226
0.000258514476679
0.000258557176673
0.000258579725755
0.00025859835759
0.000258619042682
0.000258644328647
0.000258675653574
0.0002587140834
0.000258760517071
0.000258815720659
0.00025888030011
0.000258954646555
0.000259039032787
0.00025913738184
0.000259306282565
0.000259505920524
0.000259722426245
0.000259948446384
0.000260180109573
0.000260414397247
0.000260647966163
0.000260875985731
0.000261088966832
0.00026126402216
0.000261341657064
0.000261175096562
0.000260421656525
0.000258365893995
0.00025359433958
0.00024356574197
0.000224802022429
0.000340586060469
0.000340224978478
0.00022346409453
0.000241583409364
0.000251039107024
0.000255431725417
0.000257338426393
0.000258108717133
0.000258402056991
0.000258511558533
0.000258556544873
0.000258581946909
0.000258604071554
0.000258628995611
0.000258659388355
0.000258696815957
0.000258742473162
0.000258797382055
0.000258862415959
0.000258938255243
0.000259025423343
0.000259127328772
0.000259300626239
0.000259514975572
0.000259750506039
0.0002599992559
0.000260257412933
0.000260522013014
0.000260789833043
0.000261056990854
0.000261318070506
0.000261562984917
0.000261768087338
0.000261872600062
0.000261727458911
0.000260986102521
0.00025892825928
0.000254134662111
0.000244057985735
0.000225178562651
0.000340668558797
0.000340226085674
0.000223477301117
0.000241590570392
0.000251039787561
0.00025542827734
0.000257333268626
0.000258103546543
0.000258397978947
0.000258509301534
0.000258556704023
0.000258585121952
0.000258610942242
0.000258640355696
0.000258676161954
0.000258720064807
0.000258773397532
0.000258837313204
0.000258912793226
0.000259000634942
0.000259103427163
0.000259268632717
0.000259491719121
0.00025974194487
0.000260009767637
0.000260291283118
0.000260583635999
0.000260883579556
0.000261187266561
0.000261490167906
0.000261786268824
0.000262064884707
0.000262301599063
0.000262434318154
0.000262311611188
0.000261582896064
0.000259522819963
0.000254705832892
0.000244577688942
0.000225575046105
0.000340754692141
0.000340227151034
0.000223490315056
0.000241597636032
0.000251040428394
0.000255424797079
0.00025732807167
0.000258098344017
0.000258393901084
0.000258507104307
0.000258557010339
0.000258588561104
0.000258618227186
0.00025865231878
0.000258693772624
0.000258744437664
0.000258805792808
0.000258879124954
0.000258965531586
0.000259066711464
0.000259212943454
0.000259437001105
0.000259696373298
0.00025997844899
0.000260278778106
0.000260594732067
0.000260923224728
0.000261260363943
0.000261601609152
0.000261941781525
0.0002622742664
0.000262587767734
0.000262857073754
0.000263018727703
0.000262918846302
0.000262202690776
0.000260139629027
0.000255297605125
0.000245115014644
0.000225982675273
0.000340841934725
0.000340228153393
0.000223502903654
0.000241604109477
0.000251040180045
0.000255420080623
0.000257321349704
0.000258091431857
0.000258388021603
0.00025850307871
0.000258555504127
0.000258590234046
0.000258623818554
0.000258662687973
0.000258709919496
0.000258767511599
0.00025883709161
0.000258920078079
0.000259017825949
0.000259138191723
0.000259352689195
0.000259614159894
0.00025990466657
0.000260218093081
0.000260551997821
0.000260903731612
0.000261269612245
0.000261645051793
0.000262024823934
0.00026240310243
0.00026277266345
0.00026312158973
0.000263423865809
0.000263614674923
0.000263537703095
0.000262834100442
0.000260767977833
0.000255900704984
0.000245662848872
0.000226397819867
0.00034092975627
0.000340229042548
0.000223514536081
0.00024160846893
0.000251036267885
0.00025541019171
0.000257308310109
0.000258077479497
0.000258374696817
0.000258491391102
0.000258546214755
0.00025858404715
0.000258621494158
0.000258665096944
0.000258718070465
0.000258782562044
0.000258860344193
0.000258952989629
0.00025906346301
0.000259239412362
0.000259493401088
0.000259785487619
0.00026010544361
0.000260450466652
0.000260818540065
0.000261206550408
0.000261610170508
0.000262024137969
0.000262442549896
0.000262858932951
0.000263265456655
0.00026364959551
0.00026398457173
0.000264204314208
0.000264150275981
0.000263459776075
0.000261391894615
0.000256501359194
0.000246210250055
0.000226813610157
0.000341016960588
0.000340229653051
0.0002235235455
0.000241605676272
0.000251019706825
0.000255382733794
0.000257274189506
0.000258040322337
0.000258337001041
0.000258454692607
0.000258511515181
0.00025855213983
0.000258593157604
0.000258641189616
0.000258699574552
0.000258770599624
0.000258856173039
0.000258958191482
0.000259089313827
0.000259322343992
0.000259607365914
0.000259926543805
0.000260275015055
0.000260651232599
0.000261052964312
0.000261476553951
0.000261917068005
0.000262368596238
0.000262824567038
0.000263277876172
0.000263720115159
0.000264138212949
0.00026450477811
0.000264752801538
0.000264722075171
0.000264046917069
0.000261982142332
0.000257075901217
0.000246740552098
0.000227221341369
0.000341102180955
0.000340229358959
0.000223524109541
0.000241579170477
0.000250962558427
0.000255300668143
0.000257176020187
0.00025793367468
0.000258226945651
0.000258344102981
0.000258401970137
0.000258444625721
0.000258488473027
0.000258540138336
0.000258603049093
0.000258679610351
0.000258771868741
0.00025888306407
0.000259059716351
0.000259325009412
0.00025963474261
0.000259978205978
0.000260353277107
0.000260758664624
0.000261191742086
0.00026164836165
0.000262123044923
0.000262609261824
0.000263099791259
0.000263586949911
0.000264061833406
0.000264510989093
0.00026490676852
0.00026518197262
0.000265176125574
0.000264522615803
0.000262474141885
0.000257573030606
0.000247219713813
0.000227606041242
0.000341183528594
0.000340225754804
0.000223496018458
0.000241477064865
0.000250783276519
0.000255060797968
0.000256897496362
0.000257634352829
0.000257918028324
0.000258031482251
0.000258088464085
0.000258131608583
0.000258176764814
0.000258230411284
0.000258295994123
0.000258375994164
0.000258472608067
0.000258591462117
0.00025881570877
0.000259103862785
0.000259432541285
0.000259796037402
0.000260193421112
0.000260623235106
0.000261082473771
0.000261566608736
0.000262069705268
0.000262584648791
0.000263103617114
0.000263618468732
0.000264119977937
0.000264594640946
0.000265015270217
0.000265316027175
0.000265339118228
0.000264721647006
0.000262719645714
0.000257873011289
0.000247567814969
0.0002279343807
0.000341256968846
0.000340209735807
0.0002233721743
0.000241147237825
0.000250261402085
0.000254398089583
0.000256148971494
0.000256840819233
0.000257103399624
0.000257207524572
0.000257260270651
0.000257301212248
0.000257344984305
0.000257397653326
0.000257462566141
0.000257542216354
0.000257639301068
0.000257779607528
0.000258025950431
0.000258326838014
0.000258666628981
0.000259042514772
0.000259453957285
0.000259899177966
0.000260374899775
0.000260876413243
0.000261397464741
0.000261930380569
0.000262466851921
0.000262998514885
0.000263516115255
0.000264006646664
0.000264444610992
0.000264768250405
0.000264827902641
0.000264273612997
0.000262377066483
0.00025768690383
0.000247577667532
0.000228109499819
0.00034130898829
0.000340148513513
0.000222944995381
0.000240180539095
0.000248853918888
0.000252694191446
0.000254275677839
0.000254882913426
0.000255106928816
0.000255193683797
0.00025523752857
0.000255272469523
0.000255310970873
0.000255358320942
0.000255417604704
0.000255491246567
0.000255582790951
0.000255739529508
0.000255991871717
0.000256293642453
0.000256633458815
0.00025700997091
0.000257422665097
0.000257869361188
0.000258346636957
0.000258850017218
0.000259373133279
0.000259907687844
0.000260445137093
0.000260977266081
0.00026149518424
0.000261987115107
0.000262430939215
0.000262772941142
0.00026288012412
0.000262431361058
0.000260738362569
0.00025638755632
0.000246766208985
0.000227878039549
0.000341297420431
0.000339932728687
0.000221626074338
0.00023757533515
0.000245344381097
0.00024863557906
0.000249927513484
0.000250399499166
0.000250564988326
0.000250625938069
0.000250656034116
0.00025068080838
0.000250709555429
0.000250746419946
0.000250794051696
0.00025085468784
0.000250932238502
0.000251081994348
0.000251322909196
0.000251610654686
0.000251935204939
0.000252295737599
0.000252691677799
0.00025312035285
0.000253578129644
0.000254061804007
0.000254565006267
0.000255078490169
0.000255594078406
0.000256104174829
0.000256600659773
0.000257073716752
0.000257506334085
0.00025785730434
0.000258021131885
0.000257728669127
0.000256373437729
0.000252642616104
0.000244016990637
0.000226561127535
0.000341091879416
0.000339259069004
0.000217955639873
0.000231137221728
0.000237264222813
0.000239674869595
0.000240548836942
0.000240843129792
0.000240937866935
0.000240969502375
0.000240984166162
0.000240997012234
0.000241013656738
0.000241036901001
0.000241068806021
0.000241111260847
0.000241167810683
0.000241288903914
0.000241500637522
0.000241758604845
0.000242051044049
0.00024237676509
0.000242735210455
0.000243123299339
0.000243535947666
0.000243973973995
0.000244430608936
0.000244895177537
0.000245360950808
0.000245821424452
0.000246269632026
0.000246698205632
0.000247096295131
0.000247438501415
0.000247657000843
0.000247562158495
0.000246691203132
0.000243950284542
0.000237110644086
0.000222681005345
0.000340372385679
0.000337727126183
0.000210039562585
0.000217724246552
0.00022116314106
0.00022236176148
0.000222744319799
0.000222858873485
0.00022289263781
0.000222903882129
0.000222910249882
0.000222917227798
0.000222927014951
0.000222940935967
0.000222960117496
0.000222985638965
0.000223018778645
0.000223066681863
0.000223209311013
0.000223405354824
0.000223630873235
0.000223881830738
0.000224157512026
0.000224455309708
0.000224767932403
0.000225101247242
0.000225450091471
0.00022580241809
0.000226154643981
0.000226502467797
0.000226841005037
0.000227165952426
0.000227472776957
0.000227752437464
0.000227979606976
0.000228069421536
0.000227784030379
0.000226465875381
0.000222637686547
0.000214220225661
0.000338709806338
0.000337823976337
0.000337891150815
0.000339301152132
0.000339898325885
0.000340083158996
0.000340135412252
0.00034015091492
0.000340157184443
0.000340161559989
0.000340165979912
0.0003401710125
0.000340176885044
0.000340183739803
0.000340191690172
0.000340200831343
0.0003402112535
0.00034022329473
0.000340239597235
0.000340264632518
0.000340308965797
0.000340367176775
0.000340430639474
0.000340498441441
0.000340568396635
0.000340641683551
0.00034071797073
0.0003407939769
0.000340868917545
0.000340942105999
0.000341012599549
0.000341079733638
0.000341143059513
0.000341201904932
0.000341253830566
0.000341287760056
0.000341265079616
0.000341060482241
0.00034035441519
0.000338702952571
0.000337973682769
0.000340082918897
0.000354383251872
0.000362123519939
0.000365188766058
0.000366250345322
0.000366591404874
0.000366700284743
0.000366741759738
0.000366765855443
0.000366786980933
0.000366808894081
0.000366832557044
0.000366858149934
0.000366885671305
0.000366915056354
0.000366946214696
0.000366979032972
0.000367013377839
0.000367049091434
0.000367086005754
0.000367123830771
0.000367162445244
0.000367201655044
0.000367241074583
0.000367280481707
0.000367319607579
0.000367358179409
0.000367395934699