/*--------------------------------*- C++ -*----------------------------------*\
| =========                 |                                                 |
| \\      /  F ield         | foam-extend: Open Source CFD                    |
|  \\    /   O peration     | Version:     4.1                                |
|   \\  /    A nd           | Web:         http://www.foam-extend.org         |
|    \\/     M anipulation  |                                                 |
\*---------------------------------------------------------------------------*/
FoamFile
{
    version     2.0;
    format      ascii;
    class       volScalarField;
    location    "0.3";
    object      p;
}
// * * * * * * * * * * * * * * * * * * * * * * * * * * * * * * * * * * * * * //

dimensions      [1 -1 -2 0 0 0 0];

internalField   nonuniform List<scalar> 
96000
(
5196.94435684
5196.95651297
5197.06631931
5197.2139578
5197.43900635
5197.7188903
5198.0630546
5198.46335081
5198.91972256
5199.42790581
5199.98526096
5200.58812842
5201.23299615
5201.91598542
5202.63306762
5203.37997405
5204.15224228
5204.9452004
5205.75402533
5206.57363194
5207.39903849
5208.22488056
5209.04579759
5209.85649691
5210.65149979
5211.42542227
5212.17288762
5212.88859575
5213.56734291
5214.20404343
5214.79382024
5215.33180734
5215.813882
5216.23480556
5216.59307408
5216.88012499
5217.10455939
5217.24551614
5217.34452583
5217.35356743
5196.95677636
5196.93586091
5197.02074081
5197.15092107
5197.36605178
5197.64001181
5197.98012691
5198.37726072
5198.83064349
5199.33580065
5199.88992112
5200.4893061
5201.13041016
5201.80935247
5202.52210554
5203.26441073
5204.03181817
5204.81967726
5205.6231786
5206.43732755
5207.25711758
5208.07722471
5208.8922519
5209.69704853
5210.48617482
5211.25429214
5211.99607805
5212.70629601
5213.37981569
5214.01164217
5214.5970234
5215.13129347
5215.61067042
5216.03056726
5216.39071369
5216.68451649
5216.92474381
5217.09201086
5217.23736791
5217.28833245
5197.07888391
5197.03394374
5197.09633478
5197.2071298
5197.40934585
5197.67558634
5198.01151456
5198.40688234
5198.85984129
5199.36544389
5199.92049181
5200.52111917
5201.16365424
5201.84415177
5202.55853559
5203.30251573
5204.07161752
5204.86117488
5205.66636256
5206.48218415
5207.3035611
5208.125189
5208.94176936
5209.74803926
5210.53862804
5211.3082116
5212.05150912
5212.76334169
5213.43867285
5214.07265327
5214.66076252
5215.19869834
5215.68324138
5216.11064086
5216.48181082
5216.79132909
5217.05345125
5217.2464248
5217.42086566
5217.48619314
5197.24273614
5197.18072745
5197.22380168
5197.31715661
5197.50669366
5197.76481201
5198.09608044
5198.48931852
5198.94168652
5199.44770717
5200.00375618
5200.60574949
5201.24985548
5201.93203617
5202.64814641
5203.39384882
5204.16463167
5204.95580245
5205.76250998
5206.57974734
5207.40239724
5208.22520454
5209.04286862
5209.8501122
5210.64160563
5211.41206594
5212.15627287
5212.86912957
5213.5457189
5214.1813628
5214.77179693
5215.3130861
5215.80255735
5216.2371531
5216.61878148
5216.94254594
5217.22386837
5217.43769879
5217.63581052
5217.71341975
5197.49359007
5197.42206248
5197.45250099
5197.53334594
5197.71362202
5197.96605951
5198.29491905
5198.68836329
5199.14280183
5199.65225007
5200.212671
5200.81972876
5201.46940291
5202.15752792
5202.87985778
5203.63197537
5204.40930012
5205.20707983
5206.02040715
5206.84422935
5207.67338255
5208.50259756
5209.32656234
5210.13996003
5210.93746612
5211.71380785
5212.46379842
5213.18239616
5213.86477374
5214.50638585
5215.10316655
5215.65144159
5216.1489039
5216.59283195
5216.98559218
5217.32195159
5217.61752827
5217.84364203
5218.05327943
5218.13152254
5197.80566277
5197.72843672
5197.75145584
5197.82439183
5197.99909066
5198.24853267
5198.57712937
5198.97259788
5199.4308599
5199.94551199
5200.51217229
5201.12626252
5201.78357321
5202.47979698
5203.21057034
5203.97137723
5204.75754924
5205.56425573
5206.38651748
5207.21922068
5208.05714549
5208.89498698
5209.72739731
5210.54902447
5211.35452992
5212.13863796
5212.89617667
5213.62213633
5214.31174437
5214.96053302
5215.56454691
5216.12022983
5216.62543059
5217.07744071
5217.47871666
5217.82325907
5218.12674642
5218.35736871
5218.57045551
5218.6451221
5198.18969541
5198.1085221
5198.12759673
5198.19605629
5198.36847735
5198.61769956
5198.94852753
5199.34831127
5199.81267073
5200.33485449
5200.91019666
5201.53388989
5202.20153746
5202.90867777
5203.6508131
5204.42330808
5205.22138522
5206.04011375
5206.87442207
5207.71911386
5208.56889477
5209.41839837
5210.26222237
5211.0949639
5211.91124875
5212.7057751
5213.47335771
5214.20898396
5214.90788937
5215.56561856
5216.17823442
5216.74216689
5217.25524797
5217.71455724
5218.12243875
5218.47198
5218.77908218
5219.00942422
5219.2216558
5219.29053243
5198.63641208
5198.55208949
5198.56957496
5198.63603085
5198.80877381
5199.06006624
5199.39522272
5199.8012325
5200.2735366
5200.80508698
5201.39098323
5202.02620342
5202.70616763
5203.42625168
5204.18181064
5204.96807362
5205.78013694
5206.61295255
5207.46134029
5208.32000541
5209.18356471
5210.04657447
5210.90356376
5211.74906876
5212.57766538
5213.38401001
5214.16288323
5214.90924186
5215.61829099
5216.28553393
5216.90697828
5217.47894124
5217.99912102
5218.46424802
5218.87647222
5219.22792561
5219.5349918
5219.76116969
5219.96934428
5220.03052799
5199.14573923
5199.05835586
5199.07550257
5199.14139741
5199.31626177
5199.57137484
5199.91260675
5200.32652946
5200.80846157
5201.35107455
5201.9492577
5202.59777791
5203.29186936
5204.0267342
5204.79756595
5205.59944148
5206.42731378
5207.27600061
5208.14019742
5209.01449606
5209.8934111
5210.77140864
5211.64293825
5212.50246597
5213.34450729
5214.16366478
5214.95466927
5215.71242628
5216.43208265
5217.10906317
5217.73927299
5218.31885884
5218.84532934
5219.31501018
5219.72987421
5220.08112328
5220.38592732
5220.60569892
5220.80832992
5220.86061506
5199.71285941
5199.62230608
5199.63990153
5199.70613998
5199.88439504
5200.14462648
5200.49329448
5200.91648035
5201.40940352
5201.9644503
5202.57630686
5203.23952337
5203.94913971
5204.7001708
5205.48763306
5206.30643447
5207.15136827
5208.01710261
5208.89819476
5209.78911121
5210.68425457
5211.57799279
5212.46469016
5213.33873875
5214.19458992
5215.02678824
5215.83000851
5216.5990955
5217.32912384
5218.01542062
5218.65376487
5219.2401047
5219.77173825
5220.24456281
5220.66041181
5221.00954666
5221.31016409
5221.52145395
5221.7170534
5221.75889469
5200.3347794
5200.24076968
5200.25920961
5200.32625332
5200.5087306
5200.77499844
5201.13213829
5201.56565715
5202.07067488
5202.63927085
5203.2659204
5203.94494236
5204.67116765
5205.43940667
5206.24448097
5207.08111195
5207.94391653
5208.82739846
5209.72596442
5210.63394579
5211.54562651
5212.45527255
5213.35716195
5214.24561443
5215.11502014
5215.9598692
5216.77478339
5217.55454823
5218.29416552
5218.98886136
5219.63428424
5220.22617715
5220.76162972
5221.23610449
5221.65134089
5221.99662359
5222.29138115
5222.49232679
5222.67956756
5222.7093745
5201.00736135
5200.90956494
5200.92907909
5200.99715989
5201.18442009
5201.45736958
5201.82374943
5202.26841018
5202.786362
5203.369347
5204.01161312
5204.70722708
5205.45079144
5206.23689176
5207.06013507
5207.91503756
5208.79602324
5209.69741746
5210.61346564
5211.53835701
5212.46625371
5213.39132055
5214.30775402
5215.20980945
5216.09182631
5216.94825239
5217.77366913
5218.56281521
5219.31063093
5220.01225096
5220.66320183
5221.25902639
5221.79661502
5222.27098686
5222.68381748
5223.0233387
5223.3103741
5223.49883872
5223.67606548
5223.69193877
5201.72661419
5201.62465712
5201.64534343
5201.71451658
5201.90690968
5202.18696467
5202.56312446
5203.0195025
5203.55098315
5204.14893519
5204.80735637
5205.52003567
5206.28132398
5207.085559
5207.92711168
5208.80027351
5209.69925882
5210.61820143
5211.55117651
5212.49222684
5213.43539344
5214.37474563
5215.30440876
5216.21858859
5217.1115921
5217.97784551
5218.81191208
5219.60850607
5220.36252794
5221.06904069
5221.72346639
5222.32115912
5222.85882094
5223.33101277
5223.73936208
5224.07094543
5224.34812348
5224.5216672
5224.68692579
5224.68673434
5202.48812681
5202.3816221
5202.40350729
5202.47371701
5202.67144213
5202.95885063
5203.34513274
5203.81358691
5204.35895308
5204.97218772
5205.64701161
5206.37690702
5207.15594696
5207.97819597
5208.83776591
5209.72870322
5210.64499595
5211.58057418
5212.5293358
5213.48517584
5214.44201895
5215.39384978
5216.33473921
5217.25886532
5218.16052882
5219.03416383
5219.87434672
5220.67579901
5221.433412
5222.14220464
5222.79751798
5223.39453133
5223.92976671
5224.39730308
5224.79871953
5225.11981311
5225.384608
5225.54037741
5225.69131834
5225.67264972
5203.28730454
5203.17585427
5203.1989068
5203.27000728
5203.47313657
5203.76799235
5204.16455827
5204.64524197
5205.20461858
5205.83319123
5206.52437424
5207.27131152
5208.06776962
5208.9075128
5209.78436952
5210.6921203
5211.6245105
5212.5752554
5213.53807078
5214.50670585
5215.47497797
5216.43680335
5217.38622154
5218.31741221
5219.22470418
5220.10257745
5220.9456616
5221.74872569
5222.5066903
5223.21456445
5223.86763575
5224.46092365
5224.99077463
5225.4507539
5225.84237804
5226.15002513
5226.39949989
5226.534225
5226.66811447
5226.62829282
5204.1192773
5204.00248118
5204.02662687
5204.09840204
5204.3068997
5204.60915851
5205.01600092
5205.50887
5206.08215451
5206.72586207
5207.43306883
5208.19654685
5209.00972572
5209.86604081
5210.75901191
5211.68213243
5212.62888912
5213.59277284
5214.5673148
5215.54612379
5216.52292362
5217.49158405
5218.44614312
5219.3808189
5220.2900108
5221.16829118
5222.01039131
5222.81117596
5223.56564038
5224.26882304
5224.91598849
5225.50201126
5226.02306234
5226.47215353
5226.85071206
5227.14154496
5227.37234598
5227.48233772
5227.59605469
5227.53214103
5204.97894787
5204.85640706
5204.88153548
5204.95370937
5205.1674418
5205.4769312
5205.89388229
5206.39870184
5206.98556955
5207.6439545
5208.36656147
5209.14575551
5209.97459734
5210.84616373
5211.75363985
5212.69021085
5213.64908973
5214.62353494
5215.60689338
5216.59264268
5217.57443167
5218.54611165
5219.50175584
5220.43566511
5221.34236001
5222.21655997
5223.05315435
5223.84715907
5224.59369541
5225.28787504
5225.92497171
5226.49972899
5227.00813789
5227.44260954
5227.80444282
5228.07471089
5228.2830957
5228.36427387
5228.45433285
5228.36314131
5205.86099686
5205.73231902
5205.75828939
5205.830535
5206.04927861
5206.36570645
5206.79244589
5207.30879805
5207.90870968
5208.58106781
5209.31817136
5210.1119422
5210.95503922
5211.84015015
5212.7600994
5213.70774304
5214.6760063
5215.65790934
5216.64661798
5217.63549209
5218.61812928
5219.58839644
5220.54044566
5221.46871262
5222.36789746
5223.2329292
5224.05891908
5224.84109603
5225.57476384
5226.2551543
5226.8775835
5227.43667661
5227.92823463
5228.3440125
5228.68512899
5228.93075016
5229.1126346
5229.16057092
5229.2231537
5229.10127286
5206.75989634
5206.62470371
5206.65135476
5206.72330373
5206.94675273
5207.26971646
5207.70578127
5208.23307585
5208.84528889
5209.53068183
5210.28111242
5211.0880226
5211.94363594
5212.84022059
5213.77021424
5214.72612396
5215.70057476
5216.68634498
5217.67642613
5218.66407798
5219.6428761
5220.60674329
5221.54996123
5222.46715983
5223.35328483
5224.20354464
5225.01334279
5225.77818862
5226.49362891
5227.15506479
5227.75788688
5228.29661128
5228.76683254
5229.15958654
5229.47574572
5229.69238499
5229.84341223
5229.85339179
5229.88439313
5229.72822091
5207.66996665
5207.52790753
5207.55505235
5207.62629492
5207.85406439
5208.18306014
5208.62785625
5209.16534454
5209.7889289
5210.48620199
5211.2485448
5212.06688263
5212.93297042
5213.83862656
5214.775877
5215.73686122
5216.71389367
5217.69951028
5218.68653869
5219.66816096
5220.6379653
5221.58997712
5222.51866516
5223.41892019
5224.28600655
5225.11548849
5225.90313806
5226.64481697
5227.3363777
5227.97344009
5228.55150073
5229.06497075
5229.50920865
5229.87445925
5230.16126955
5230.34443156
5230.46006402
5230.42717729
5230.42228316
5230.22808326
5208.58532066
5208.43610457
5208.46354585
5208.53364557
5208.76529077
5209.09973304
5209.55255417
5210.09934847
5210.73320764
5211.44101388
5212.21363635
5213.041448
5213.91570275
5214.82774035
5215.7691515
5216.73169159
5217.70735681
5218.68844341
5219.66762967
5220.63804728
5221.59333739
5222.52768084
5223.43579758
5224.31291241
5225.15468778
5225.95712614
5226.71644887
5227.42894445
5228.09083581
5228.69800694
5229.24608161
5229.72936593
5230.14295036
5230.4762087
5230.72926387
5230.87442222
5230.95005275
5230.8692901
5230.82405505
5230.58803845
5209.50008657
5209.3435586
5209.37094082
5209.43942659
5209.67444406
5210.01367917
5210.47372415
5211.02881884
5211.67171456
5212.38854339
5213.16962901
5214.00475817
5214.88465322
5215.80014846
5216.74237825
5217.70270014
5218.67278756
5219.64470357
5220.61099606
5221.56477859
5222.4997911
5223.41042867
5224.2917326
5225.13934102
5225.94939982
5226.71843601
5227.44320506
5228.12049407
5228.74695208
5229.3187757
5229.8317453
5230.28005657
5230.65848305
5230.95542561
5231.17045829
5231.27318742
5231.30424674
5231.17060318
5231.08050717
5230.79887848
5210.40828822
5210.2438603
5210.2710854
5210.33756531
5210.5754743
5210.91882079
5211.38522468
5211.94752475
5212.5981072
5213.32231877
5214.10990685
5214.95004121
5215.83288514
5216.74874383
5217.68827739
5218.64243527
5219.60256743
5220.5605144
5221.50871714
5222.4403083
5223.34917769
5224.22999877
5225.07820993
5225.88994749
5226.66192901
5227.39129588
5228.07540802
5228.71162956
5229.29711183
5229.82841274
5230.30147945
5230.71037238
5231.0494857
5231.30613954
5231.47920959
5231.5353671
5231.51747294
5231.32614288
5231.18686177
5230.85607193
5211.30351252
5211.13118624
5211.15804451
5211.22211728
5211.46240218
5211.80914451
5212.28099054
5212.84933439
5213.50617236
5214.23603412
5215.02806343
5215.87078641
5216.75378377
5217.66681205
5218.60004339
5219.54401303
5220.48975099
5221.42889031
5222.353793
5223.25765265
5224.1345647
5224.97954991
5225.78852453
5226.55820958
5227.28597973
5227.96966516
5228.60733402
5229.19701728
5229.73641793
5230.22247928
5230.65132499
5231.01686318
5231.31304334
5231.52599243
5231.65371841
5231.65969681
5231.58872119
5231.33452465
5231.14115158
5230.75748766
5212.18009706
5211.99966574
5212.02592414
5212.08718648
5212.32932093
5212.67873321
5213.15507882
5213.72826821
5214.38988312
5215.12360966
5215.91796517
5216.76081098
5217.64112701
5218.54810687
5219.471426
5220.40120411
5221.3281594
5222.24373682
5223.14025169
5224.01100446
5224.8503559
5225.6537474
5226.4176542
5227.13945753
5227.81727299
5228.44973694
5229.03571303
5229.57394447
5230.0627373
5230.49946004
5230.8804178
5231.19933827
5231.44965241
5231.61618957
5231.69595307
5231.64912919
5231.52262028
5231.20338485
5230.95222475
5230.51033948
5213.03180955
5212.84323871
5212.86875895
5212.92690701
5213.1704142
5213.52180407
5214.00171745
5214.57855221
5215.24345472
5215.97924862
5216.77380898
5217.61431846
5218.48914483
5219.38691087
5220.29679235
5221.2084974
5222.11244523
5222.9999163
5223.86321515
5224.69579829
5225.49235515
5226.24882023
5226.96229321
5227.63090352
5228.2536277
5228.82998245
5229.35968112
5229.84225559
5230.27666706
5230.66073107
5230.99092402
5231.26074743
5231.46301468
5231.58111813
5231.61083221
5231.50880845
5231.32368931
5230.93548196
5230.62421045
5230.12433163
5213.85275818
5213.65605513
5213.68074445
5213.73556547
5213.98003821
5214.33277586
5214.81536684
5215.39467691
5216.0614011
5216.79749149
5217.59017399
5218.42594792
5219.29256583
5220.17807915
5221.07116751
5221.96113686
5222.83812474
5223.69327434
5224.51891818
5225.30872072
5226.05776152
5226.7625261
5227.42081862
5228.03163325
5228.5948695
5229.11098994
5229.58064587
5230.00422104
5230.38137145
5230.71037597
5230.98786681
5231.20706734
5231.36006526
5231.42864627
5231.40709143
5231.24808274
5231.00181142
5230.54080056
5230.16591621
5229.60482201
5214.63706958
5214.43234212
5214.4562009
5214.50761981
5214.75276492
5215.10632231
5215.59077638
5216.17145218
5216.83858549
5217.57326073
5218.36205969
5219.19080494
5220.0466405
5220.91705422
5221.79023986
5222.65511591
5223.50155953
5224.3206066
5225.10465819
5225.84763642
5226.54506338
5227.19403635
5227.79317326
5228.34238796
5228.84256838
5229.29521463
5229.70198513
5230.06417144
5230.38216342
5230.65472086
5230.87862172
5231.04677107
5231.15044972
5231.16972098
5231.09724884
5230.88166218
5230.57470856
5230.04123756
5229.60156849
5228.97711145
5215.37905567
5215.1665157
5215.18966991
5215.23779014
5215.48347118
5215.83745866
5216.3230662
5216.90408202
5217.57028695
5218.30191845
5219.08493423
5219.90450012
5220.74716914
5221.59988206
5222.45036356
5223.28716413
5224.09992479
5224.87960537
5225.6187143
5226.31147743
5226.95389731
5227.54377861
5228.0806073
5228.56526879
5228.99972586
5229.38658382
5229.7285723
5230.0279465
5230.28587119
5230.50161569
5230.67210892
5230.7899245
5230.84548488
5230.81703084
5230.69541374
5230.42487345
5230.05821225
5229.45207636
5228.94681615
5228.25796146
5216.07317712
5215.85316703
5215.87593146
5215.92109919
5216.16739121
5216.52159323
5217.00776891
5217.58819063
5218.25220801
5218.97925407
5219.75470142
5220.56309418
5221.39042349
5222.22310784
5223.04842548
5223.85458184
5224.63100749
5225.36861649
5226.06006091
5226.69989517
5227.28467103
5227.81296023
5228.28514585
5228.70315965
5229.07009731
5229.38972732
5229.66590987
5229.90191823
5230.09973641
5230.25917539
5230.37733711
5230.446466
5230.45609102
5230.38254059
5230.21467001
5229.89206354
5229.46823256
5228.79134863
5228.22142894
5227.46834323
5216.71418653
5216.48721562
5216.51018303
5216.55307742
5216.8003381
5217.15475313
5217.64105096
5218.22003488
5218.88067749
5219.6016783
5220.36788655
5221.16327579
5221.97331536
5222.78393313
5223.58198748
5224.35536307
5225.0933049
5225.78670727
5226.4283887
5227.01326434
5227.53849478
5228.0034318
5228.40940977
5228.75945229
5229.0578289
5229.3095174
5229.51956529
5229.6923183
5229.8306291
5229.93490712
5230.00248832
5230.02535373
5229.99219817
5229.87745984
5229.66792815
5229.29831981
5228.82239174
5228.07920678
5227.44776191
5226.63185841
5217.29682121
5217.06365073
5217.08783385
5217.12958451
5217.37851686
5217.73336187
5218.21943917
5218.79617206
5219.4522571
5220.16576651
5220.92111406
5221.70176879
5222.49272724
5223.27946247
5224.04844084
5224.78724958
5225.48496852
5226.1324933
5226.72281733
5227.2512572
5227.71559659
5228.11599053
5228.45476017
5228.73604277
5228.96530611
5229.14876665
5229.29271764
5229.40263335
5229.48229933
5229.53281137
5229.55185801
5229.53131248
5229.45921685
5229.30826952
5229.0632797
5228.65391611
5228.13365731
5227.33146909
5226.64413296
5225.7681012
5217.81680913
5217.5785892
5217.60560776
5217.64796356
5217.89970918
5218.25544841
5218.74105778
5219.31473554
5219.96507063
5220.66965452
5221.4125804
5222.17688947
5222.94715842
5223.70844019
5224.44683363
5225.14964652
5225.80580668
5226.40621544
5226.94404984
5227.41504603
5227.81759753
5228.15268438
5228.42362349
5228.63566396
5228.79547509
5228.91052049
5228.98841207
5229.03580893
5229.05751079
5229.05543273
5229.02782022
5228.96672193
5228.85991078
5228.67875491
5228.40648554
5227.96773242
5227.41521493
5226.56627332
5225.8333758
5224.90246847
5218.26831462
5218.02692585
5218.05929211
5218.1047604
5218.36083912
5218.71799819
5219.20274268
5219.7723012
5220.41541252
5221.1093707
5221.83808438
5222.58424405
5223.33205632
5224.06618179
5224.77236949
5225.43765693
5226.05082509
5226.60277412
5227.08686869
5227.49924811
5227.83890178
5228.10763801
5228.30976828
5228.45162536
5228.54106544
5228.58676984
5228.59778522
5228.58199628
5228.54531841
5228.49066729
5228.41713702
5228.31737474
5228.17951554
5227.97429763
5227.68422501
5227.22916477
5226.66079526
5225.78259226
5225.01959497
5224.04161936
5218.65047007
5218.40908948
5218.45049325
5218.50260297
5218.76501475
5219.12426409
5219.60772725
5220.17204754
5220.80647422
5221.48820873
5222.20112088
5222.92761344
5223.6515595
5224.35724028
5225.03005964
5225.65678049
5226.22602647
5226.72867708
5227.15826635
5227.51129234
5227.78730195
5227.98890346
5228.12139849
5228.19212123
5228.21008504
5228.18509935
5228.12786266
5228.04744898
5227.9510125
5227.84268731
5227.72279818
5227.58518264
5227.41927889
5227.19635906
5226.89984996
5226.44590668
5225.88572317
5225.00644907
5224.24056806
5223.23136154
5218.95285135
5218.71672926
5218.77199479
5218.834751
5219.10505785
5219.46620296
5219.94697009
5220.50390917
5221.12720995
5221.79414764
5222.48867298
5223.19292471
5223.89045523
5224.56516012
5225.20209018
5225.78772034
5226.31049456
5226.76125108
5227.1336578
5227.42452156
5227.63389018
5227.76512236
5227.82457066
5227.82047794
5227.76291056
5227.6626311
5227.53242938
5227.38236345
5227.22101708
5227.05396225
5226.88316832
5226.70429153
5226.50918596
5226.27108559
5225.97673762
5225.54039091
5225.0147873
5224.16852455
5223.43569974
5222.41873126
5219.18783973
5218.96658501
5219.04195702
5219.12059061
5219.40065465
5219.76377028
5220.24096042
5220.78926436
5221.400285
5222.05146891
5222.72693294
5223.40853435
5224.07949868
5224.72331581
5225.32466644
5225.86971455
5226.34669518
5226.74636826
5227.06247303
5227.2920518
5227.43554298
5227.49687231
5227.48356955
5227.40464952
5227.27093809
5227.09401284
5226.88938191
5226.66744913
5226.43850777
5226.20968202
5225.98494232
5225.76232114
5225.53725408
5225.28660159
5225.00367878
5224.60419943
5224.14680067
5223.38287987
5222.73918323
5221.76036221
5219.32824874
5219.13251552
5219.23133731
5219.32736536
5219.61504786
5219.97674652
5220.44663545
5220.98249513
5221.57755796
5222.20929607
5222.86195864
5223.51703761
5224.15740509
5224.76612146
5225.32748597
5225.82733676
5226.25368086
5226.59717068
5226.85156912
5227.01410597
5227.08555268
5227.07019026
5226.97652896
5226.81569193
5226.59704322
5226.33410841
5226.04522135
5225.74060995
5225.43269491
5225.13009796
5224.83894174
5224.55978563
5224.29227068
5224.01782666
5223.73937724
5223.37777026
5223.00557055
5222.36283837
5221.8693628
5221.00014144
5219.42910589
5219.28036708
5219.4062835
5219.52327631
5219.8186688
5220.17910316
5220.64268837
5221.168157
5221.75045945
5222.36693403
5223.00192842
5223.63653025
5224.25327498
5224.83481607
5225.36509747
5225.8296464
5226.21623471
5226.5153837
5226.72081408
5226.82984714
5226.8434816
5226.76627562
5226.60664151
5226.37802381
5226.08977388
5225.75521518
5225.39561003
5225.02086451
5224.64540587
5224.27900557
5223.92968962
5223.60021189
5223.29422488
5222.99771593
5222.72432436
5222.40307364
5222.12540333
5221.63407769
5221.32771437
5220.64173819
5219.42636297
5219.31833792
5219.45507396
5219.58151877
5219.87407841
5220.22709434
5220.68055604
5221.19332712
5221.76102059
5222.36053483
5222.97613863
5223.58856993
5224.18011978
5224.73316399
5225.23141193
5225.66018518
5226.00710226
5226.26261114
5226.42043749
5226.47798374
5226.43645051
5226.30070213
5226.07961626
5225.78401642
5225.43187023
5225.0298056
5224.60252528
5224.16035607
5223.71910833
5223.28924492
5222.87988628
5222.49478457
5222.13963331
5221.80252386
5221.50440175
5221.1817461
5220.94805608
5220.57066866
5220.45631865
5220.01989727
5033.74094751
5033.76548608
5033.88472315
5034.03803102
5034.26653678
5034.54886177
5034.89494991
5035.29706818
5035.75526645
5036.26537916
5036.82478459
5037.42984205
5038.07703956
5038.76249743
5039.48218058
5040.23181197
5041.00691792
5041.80281408
5042.61465765
5043.43736356
5044.26592095
5045.09494731
5045.91902914
5046.73290958
5047.53106477
5048.30808582
5049.05857232
5049.77719924
5050.45873553
5051.09806543
5051.6902688
5052.2304285
5052.71429887
5053.1364893
5053.49500224
5053.78070806
5054.00042404
5054.13202963
5054.21261633
5054.19747489
5033.76529303
5033.76993067
5033.87231765
5034.01421996
5034.23441551
5034.51142729
5034.85335023
5035.25216512
5035.70717917
5036.21411643
5036.77014697
5037.37159493
5038.01489813
5038.69616923
5039.41136686
5040.15622007
5040.92626454
5041.71683547
5042.52310781
5043.34007227
5044.16270384
5044.98563859
5045.80349698
5046.6110985
5047.40298598
5048.17379943
5048.91819926
5049.63093086
5050.30684589
5050.94093354
5051.52841469
5052.06461436
5052.54564928
5052.96692651
5053.32761085
5053.62088844
5053.85661795
5054.01455195
5054.13184556
5054.1402822
5033.89649988
5033.88529274
5033.976467
5034.10595362
5034.31659154
5034.58735138
5034.9256133
5035.32292569
5035.77770852
5036.28531645
5036.84254063
5037.44553848
5038.09061178
5038.77380108
5039.49100896
5040.23792718
5041.01006145
5041.80272691
5042.61107779
5043.43009937
5044.25468574
5045.07951974
5045.89928367
5046.70869402
5047.50236112
5048.27494099
5049.02113514
5049.73574796
5050.41372723
5051.05021242
5051.64065985
5052.18076486
5052.66717876
5053.09608814
5053.46751194
5053.77525441
5054.02903867
5054.20492431
5054.33512489
5054.34451139
5034.06590332
5034.04418704
5034.12313525
5034.2403678
5034.44119702
5034.70526151
5035.03951695
5035.43510287
5035.88964647
5036.39806625
5036.95674341
5037.56161626
5038.20881832
5038.89428928
5039.61385549
5040.36315495
5041.13765072
5041.93262587
5042.7432041
5043.56435377
5044.39093188
5045.21765895
5046.03921382
5046.85029295
5047.64554473
5048.41966313
5049.16740773
5049.88366333
5050.56349629
5051.20221798
5051.79553843
5052.3395137
5052.83129124
5053.26764973
5053.64924459
5053.96989677
5054.23929059
5054.42934382
5054.57159909
5054.5762218
5034.3201914
5034.29072256
5034.3604399
5034.46803198
5034.66141939
5034.92076081
5035.25303421
5035.64903772
5036.10579628
5036.61779269
5037.18101382
5037.79114709
5038.44413247
5039.13577653
5039.86180006
5040.61775728
5041.39903908
5042.20086586
5043.01830282
5043.84627044
5044.67957764
5045.51292992
5046.34099004
5047.15841615
5047.95986022
5048.74002684
5049.49370887
5050.21584698
5050.90159788
5051.54640655
5052.14617816
5052.69722131
5053.19700702
5053.64257626
5054.03482115
5054.36699432
5054.64848507
5054.84764416
5054.99660269
5054.9973363
5034.63479439
5034.6003632
5034.6641719
5034.76529127
5034.95405869
5035.21093494
5035.54318436
5035.94133159
5036.40199663
5036.91928661
5037.48885343
5038.10614108
5038.76689599
5039.46677807
5040.20138663
5040.96617359
5041.75643926
5042.56732328
5043.39381713
5044.23077852
5045.07295955
5045.9150283
5046.75161119
5047.57733086
5048.38682538
5049.17479702
5049.9360544
5050.66557154
5051.35856151
5052.01054903
5052.61754964
5053.17598933
5053.68347467
5054.13703771
5054.53756064
5054.87749986
5055.16611198
5055.36879754
5055.51949267
5055.51428024
5035.02089263
5034.98244483
5035.04286046
5035.14016384
5035.32707784
5035.58397159
5035.91853855
5036.32103293
5036.78780885
5037.312649
5037.89092351
5038.51784503
5039.1889684
5039.89979519
5040.64578713
5041.42227405
5042.224445
5043.04733772
5043.88585003
5044.73475618
5045.58873334
5046.44238795
5047.29029197
5048.12701822
5048.94717021
5049.74542598
5050.51658294
5051.25561497
5051.95774628
5052.61851813
5053.23396767
5053.80051407
5054.31574564
5054.77650053
5055.18353058
5055.52846858
5055.82075876
5056.02357426
5056.17364257
5056.16291455
5035.46962677
5035.42793245
5035.48705255
5035.58277043
5035.77021861
5036.02930097
5036.36822685
5036.77696149
5037.25169127
5037.78591618
5038.3747686
5039.01324341
5039.69670738
5040.42049545
5041.17991867
5041.97016848
5042.78630534
5043.62324779
5044.47578364
5045.33858769
5046.20624773
5047.0732929
5047.93422704
5048.78356318
5049.61585662
5050.42574588
5051.20799701
5051.95755672
5052.66962283
5053.33970068
5053.96377751
5054.53817119
5055.06034407
5055.52682267
5055.93817931
5056.28522566
5056.57788861
5056.77744275
5056.92427676
5056.90643893
5035.98101277
5035.93609316
5035.99509752
5036.09062464
5036.28034158
5036.54332702
5036.8883391
5037.3049946
5037.78935765
5038.33465825
5038.93581288
5039.5876017
5040.28520039
5041.02376613
5041.79844466
5042.60427207
5043.43616284
5044.28889912
5045.15714269
5046.03545389
5046.9183179
5047.80017384
5048.67544693
5049.53858171
5050.3840754
5051.20651576
5052.00062276
5052.76129624
5053.48368054
5054.16320884
5054.79577249
5055.37753236
5055.90577256
5056.37666187
5056.79062448
5057.13770684
5057.42865262
5057.62299871
5057.76555404
5057.73998828
5036.55033263
5036.5021252
5036.56183762
5036.65812515
5036.8513863
5037.11957919
5037.47204142
5037.89797452
5038.39333914
5038.95109072
5039.56593548
5040.23243323
5040.9455596
5041.70028003
5042.49155888
5043.31425969
5044.16313406
5045.0328119
5045.91781485
5046.81257651
5047.7114696
5048.60883542
5049.49901512
5050.37638141
5051.23537038
5052.07051568
5052.87648586
5053.64812542
5054.38051232
5055.06898931
5055.70932891
5056.29750776
5056.83061202
5057.30443471
5057.71929633
5058.06449463
5058.35185407
5058.53910508
5058.67618604
5058.6415863
5037.17460787
5037.12283179
5037.18369046
5037.28126099
5037.47892098
5037.75325481
5038.11420765
5038.55049079
5039.05795909
5039.62927294
5040.25891967
5040.94122384
5041.67094571
5042.44284108
5043.25167452
5044.09211868
5044.95874503
5045.84601597
5046.74830015
5047.65989456
5048.57505265
5049.4880143
5050.39303611
5051.28442124
5052.15654852
5053.00390213
5053.82110346
5054.60294451
5055.34443758
5056.04083293
5056.6877806
5057.28106776
5057.81758547
5058.29275068
5058.70683367
5059.04838067
5059.33053633
5059.50906248
5059.63972891
5059.59493776
5037.84972055
5037.79405498
5037.85633144
5037.95547614
5038.15811836
5038.4392517
5038.8094645
5039.25690466
5039.77730984
5040.36301635
5041.00827505
5041.70715397
5042.45417772
5043.24387128
5044.07077889
5044.92936285
5045.81399713
5046.71896198
5047.63846192
5048.56665001
5049.49765737
5050.42562349
5051.34472562
5052.2492063
5053.13339876
5053.99175129
5054.81885243
5055.60945578
5056.35852099
5057.06121698
5057.71308122
5058.30971818
5058.84783516
5059.32247219
5059.73389111
5060.06985095
5060.34502279
5060.51297742
5060.63605275
5060.57966328
5038.57167959
5038.51174001
5038.57556247
5038.67638662
5038.88437775
5039.17274201
5039.55275017
5040.01191447
5040.54583804
5041.14649809
5041.807885
5042.52378391
5043.28845936
5044.09618143
5044.94125138
5045.8179006
5046.72028798
5047.64249768