/*--------------------------------*- C++ -*----------------------------------*\
| =========                 |                                                 |
| \\      /  F ield         | foam-extend: Open Source CFD                    |
|  \\    /   O peration     | Version:     4.1                                |
|   \\  /    A nd           | Web:         http://www.foam-extend.org         |
|    \\/     M anipulation  |                                                 |
\*---------------------------------------------------------------------------*/
FoamFile
{
    version     2.0;
    format      ascii;
    class       volScalarField;
    location    "0.3";
    object      pd;
}
// * * * * * * * * * * * * * * * * * * * * * * * * * * * * * * * * * * * * * //

dimensions      [1 -1 -2 0 0 0 0];

internalField   nonuniform List<scalar> 
96000
(
5278.54714401
5278.55929486
5278.66910733
5278.81675261
5279.0418037
5279.32168633
5279.66584798
5280.06614194
5280.52251237
5281.03069486
5281.58804951
5282.19091646
5282.83578365
5283.51877239
5284.23585412
5284.9827602
5285.75502808
5286.54798583
5287.35681057
5288.176417
5289.00182337
5289.82766534
5290.64858236
5291.45928179
5292.25428482
5293.02820747
5293.77567302
5294.49138148
5295.17012899
5295.80682976
5296.39660684
5296.93459439
5297.41666975
5297.83759415
5298.19586335
5298.4829144
5298.70734802
5298.84830327
5298.94731193
5298.95636718
5278.55955826
5278.53864268
5278.62353038
5278.75371774
5278.96885041
5279.24280887
5279.58292137
5279.9800531
5280.43343459
5280.93859103
5281.49271098
5282.09209546
5282.73319898
5283.41214079
5284.1248934
5284.86719816
5285.63460521
5286.42246392
5287.22596489
5288.04011357
5288.85990343
5289.68001047
5290.49503769
5291.29983446
5292.08896101
5292.85707868
5293.59886499
5294.30908332
5294.98260327
5295.61442999
5296.19981147
5296.73408196
5297.21345958
5297.63335718
5297.99350406
5298.28730643
5298.52753249
5298.69479747
5298.84015372
5298.89113213
5278.68167201
5278.63673341
5278.69913392
5278.80993613
5279.01215428
5279.27839342
5279.61431929
5280.00968514
5280.46264297
5280.96824499
5281.52329252
5282.12391949
5282.76645414
5283.44695126
5284.1613347
5284.90531451
5285.67441597
5286.46397303
5287.26916045
5288.08498186
5288.90635871
5289.72798662
5290.5445671
5291.35083721
5292.14142626
5292.91101015
5293.65430801
5294.36614089
5295.04147225
5295.67545279
5296.26356216
5296.80149823
5297.28604176
5297.71344178
5298.08461182
5298.39412907
5298.65624887
5298.84921888
5299.02365554
5299.08899618
5278.84553128
5278.78352448
5278.82660822
5278.91997063
5279.10951005
5279.36762723
5279.69889341
5280.09212965
5280.54449662
5281.05051679
5281.60656553
5282.20855855
5282.85266423
5283.5348446
5284.25095455
5284.99665669
5285.76743928
5286.55860982
5287.36531717
5288.18255439
5289.00520425
5289.8280116
5290.64567582
5291.45291961
5292.24441332
5293.01487396
5293.7590812
5294.47193814
5295.14852759
5295.78417148
5296.37460555
5296.91589481
5297.40536641
5297.83996256
5298.22159076
5298.54535367
5298.82667281
5299.04049845
5299.23860513
5299.31622501
5279.09638815
5279.02486192
5279.05531
5279.13616264
5279.3164413
5279.56887765
5279.89773487
5280.2911772
5280.74561468
5281.25506247
5281.81548319
5282.42254074
5283.07221464
5283.76033939
5284.48266901
5285.23478638
5286.01211092
5286.80989043
5287.6232176
5288.44703969
5289.27619288
5290.10540795
5290.92937288
5291.74277079
5292.54027715
5293.31661919
5294.06661006
5294.78520801
5295.46758564
5296.10919763
5296.70597816
5297.25425317
5297.75171575
5298.19564417
5298.58840415
5298.92476161
5299.22033432
5299.44644252
5299.65607444
5299.73432748
5279.40846027
5279.33123538
5279.35426419
5279.42720797
5279.60190935
5279.85135009
5280.17994427
5280.57541072
5281.03367157
5281.54832317
5282.11498326
5282.7290733
5283.38638376
5284.08260729
5284.81338043
5285.5741871
5286.36035889
5287.16706517
5287.98932674
5288.82202982
5289.65995457
5290.49779609
5291.33020652
5292.15183385
5292.95733951
5293.74144781
5294.49898675
5295.22494654
5295.91455454
5296.56334292
5297.16735646
5297.72303918
5298.22824016
5298.68025068
5299.08152647
5299.42606698
5299.72955025
5299.96016673
5300.17324762
5300.24792499
5279.79249106
5279.71131931
5279.73040378
5279.7988711
5279.97129456
5280.22051526
5280.55134049
5280.95112198
5281.41548013
5281.93766334
5282.51300529
5283.13669831
5283.80434567
5284.51148574
5285.25362082
5286.02611556
5286.82419244
5287.64292072
5288.47722881
5289.32192041
5290.1717012
5291.02120476
5291.86502878
5292.69777038
5293.51405537
5294.30858189
5295.07616467
5295.81179101
5296.5106963
5297.1684251
5297.78104047
5298.34497259
5298.85805377
5299.31736352
5299.7252451
5300.07478465
5300.3818829
5300.61221918
5300.82444475
5300.89333311
5280.23920733
5280.15488604
5280.1723814
5280.23884499
5280.41159016
5280.66288087
5280.99803439
5281.40404175
5281.87634469
5282.40789448
5282.99379046
5283.62901045
5284.30897445
5285.02905826
5285.78461698
5286.5708797
5287.38294275
5288.21575806
5289.06414549
5289.92281037
5290.78636949
5291.64937915
5292.50636842
5293.35187345
5294.18047016
5294.98681491
5295.76568828
5296.51204709
5297.22109607
5297.88833857
5298.50978233
5299.0817448
5299.60192444
5300.0670517
5300.47927586
5300.83072769
5301.13779012
5301.36396231
5301.57213126
5301.63332698
5280.74853452
5280.66115269
5280.6783093
5280.74421174
5280.91907816
5281.17418933
5281.51541813
5281.92933829
5282.41126916
5282.95388153
5283.5520644
5284.20058441
5284.89467565
5285.62954029
5286.4003718
5287.20224705
5288.03011904
5288.87880558
5289.74300221
5290.61730066
5291.49621553
5292.37421295
5293.24574245
5294.10527013
5294.94731149
5295.76646908
5296.55747368
5297.31523062
5298.0348868
5298.71186686
5299.34207608
5299.92166136
5300.44813154
5300.91781256
5301.33267639
5301.68392389
5301.98872419
5302.20849006
5302.41111564
5302.46341285
5281.31565521
5281.2251037
5281.24270901
5281.30895497
5281.48721199
5281.7474414
5282.09610616
5282.5192894
5283.0122112
5283.56725735
5284.17911365
5284.84232997
5285.55194611
5286.30297697
5287.09043898
5287.90924012
5288.7541736
5289.61990759
5290.50099942
5291.39191568
5292.28705886
5293.18079691
5294.06749417
5294.94154272
5295.79739394
5296.62959236
5297.43281274
5298.20189958
5298.93192772
5299.61822401
5300.25656756
5300.84290674
5301.37453998
5301.8473646
5302.26321332
5302.61234648
5302.91296006
5303.12424407
5303.3198379
5303.36169147
5281.93757601
5281.8435681
5281.86201784
5281.929069
5282.11154817
5282.37781385
5282.73495038
5283.16846655
5283.67348288
5284.24207822
5284.86872751
5285.5477493
5286.27397439
5287.04221319
5287.84728724
5288.68391793
5289.54672219
5290.43020375
5291.32876933
5292.23675037
5293.14843091
5294.05807675
5294.95996599
5295.84841835
5296.71782403
5297.56267315
5298.37758744
5299.15735234
5299.89696948
5300.59166482
5301.23708688
5301.82897897
5302.36443113
5302.83890585
5303.25414186
5303.59942269
5303.89417621
5304.09511582
5304.28235067
5304.31217018
5282.61015861
5282.51236393
5282.53188785
5282.59997605
5282.78723807
5283.06018532
5283.42656176
5283.87121976
5284.38917016
5284.97215451
5285.61442038
5286.31003418
5287.05359835
5287.83969845
5288.6629415
5289.51784369
5290.39882901
5291.30022283
5292.21627061
5293.14116161
5294.06905799
5294.99412459
5295.91055787
5296.8126132
5297.69463003
5298.55105616
5299.37647299
5300.16561914
5300.91343469
5301.61505419
5302.26600425
5302.86182797
5303.39941594
5303.87378757
5304.28661764
5304.62613679
5304.91316797
5305.10162635
5305.27884693
5305.29473309
5283.32941185
5283.22745646
5283.24815252
5283.31733301
5283.50972789
5283.78978054
5284.16593685
5284.62231209
5285.15379128
5285.75174267
5286.41016359
5287.12284272
5287.88413083
5288.68836561
5289.52991803
5290.40307953
5291.30206445
5292.22100662
5293.15398127
5294.09503119
5295.03819745
5295.97754938
5296.90721231
5297.821392
5298.71439545
5299.58064889
5300.41471552
5301.21130955
5301.96533124
5302.67184341
5303.3262682
5303.92395996
5304.461621
5304.93381254
5305.34216106
5305.67374218
5305.95091585
5306.12445313
5306.28970529
5306.2895271
5284.0909247
5283.98442168
5284.0063166
5284.07653361
5284.27426044
5284.56166653
5284.94794508
5285.4163964
5285.96176106
5286.57499503
5287.24981866
5287.97971388
5288.75875361
5289.58100236
5290.44057201
5291.33150896
5292.24780127
5293.18337906
5294.13214023
5295.08797981
5296.04482254
5296.99665304
5297.9375422
5298.86166808
5299.76333147
5300.63696648
5301.47714944
5302.27860179
5303.03621462
5303.74500664
5304.40031904
5304.99733119
5305.53256578
5306.00010158
5306.40151711
5306.72260831
5306.98739868
5307.14316145
5307.29409579
5307.27544082
5284.89010264
5284.77865407
5284.8017163
5284.87282402
5285.07595496
5285.37080825
5285.76737052
5286.2480513
5286.80742637
5287.43599833
5288.12718103
5288.87411811
5289.67057597
5290.51031887
5291.38717527
5292.29492567
5293.22731544
5294.17805985
5295.14087469
5296.10950924
5297.07778091
5298.03960592
5298.98902377
5299.92021416
5300.82750601
5301.70537928
5302.54846351
5303.35152765
5304.10949211
5304.81736564
5305.4704359
5306.06372253
5306.59357251
5307.053551
5307.4451741
5307.75281867
5308.00228879
5308.13700709
5308.27088978
5308.23108225
5285.72207561
5285.60528123
5285.62943657
5285.70121892
5285.90971818
5286.2119744
5286.61881308
5287.11167916
5287.68496209
5288.3286689
5289.03587534
5289.79935312
5290.61253172
5291.4688465
5292.36181723
5293.28493734
5294.23169355
5295.19557668
5296.17011805
5297.14892647
5298.12572579
5299.09438578
5300.04894447
5300.98361996
5301.89281172
5302.77109208
5303.61319229
5304.41397701
5305.16844126
5305.87162332
5306.51878763
5307.10480917
5307.62585885
5308.07494918
5308.45350652
5308.74433678
5308.97513307
5309.08511786
5309.19882761
5309.13492885
5286.58174643
5286.45920737
5286.48434539
5286.55652638
5286.77026035
5287.07974708
5287.49669434
5288.00151084
5288.58837688
5289.24676106
5289.96936766
5290.74856142
5291.57740295
5292.44896898
5293.35644469
5294.29301521
5295.25189355
5296.22633811
5297.20969587
5298.19544454
5299.17723295
5300.14891245
5301.10455623
5302.03846519
5302.94515987
5303.81935977
5304.65595424
5305.44995905
5306.19649525
5306.89067432
5307.52776988
5308.10252564
5308.61093297
5309.0454037
5309.4072356
5309.67750094
5309.88588097
5309.96705209
5310.05710367
5309.96592761
5287.46379567
5287.3351196
5287.3610995
5287.43335215
5287.65209724
5287.9685223
5288.39525784
5288.91160686
5289.51151676
5290.18387407
5290.92097721
5291.71474773
5292.5578444
5293.44295493
5294.36290372
5295.3105468
5296.27880943
5297.26071177
5298.24941968
5299.23829309
5300.22092963
5301.19119626
5302.14324504
5303.07151157
5303.97069614
5304.83572784
5305.66171782
5306.44389488
5307.1775626
5307.85795256
5308.4803805
5309.03947187
5309.53102852
5309.94680514
5310.28792002
5310.5335384
5310.71541806
5310.76334729
5310.82592318
5310.70405776
5288.36269542
5288.22750453
5288.25416506
5288.32612101
5288.54957144
5288.87253229
5289.30859312
5289.83588447
5290.44809573
5291.1334878
5291.88391794
5292.69082775
5293.5464407
5294.4430249
5295.37301804
5296.32892715
5297.30337724
5298.28914666
5299.279227
5300.26687808
5301.24567547
5302.20954205
5303.15275948
5304.06995761
5304.95608236
5305.80634212
5306.61614037
5307.38098633
5308.09642659
5308.75786199
5309.36068257
5309.89940529
5310.36962513
5310.76237746
5311.07853495
5311.29517142
5311.44619391
5311.4561664
5311.48716155
5311.33100454
5289.27276601
5289.1307086
5289.15786286
5289.22911234
5289.45688319
5289.78587598
5290.23066801
5290.768153
5291.39173551
5292.0890077
5292.85135001
5293.66968743
5294.53577478
5295.44143042
5296.37868029
5297.33966383
5298.31669549
5299.30231124
5300.28933877
5301.27096019
5302.24076374
5303.19277485
5304.12146229
5305.02171687
5305.88880295
5306.71828479
5307.50593446
5308.24761356
5308.93917433
5309.57623627
5310.15429528
5310.66776345
5311.11199973
5311.47724859
5311.76405699
5311.9472162
5312.06284399
5312.02995027
5312.02504887
5311.83086584
5290.18812027
5290.0389059
5290.06635657
5290.13646315
5290.36810968
5290.70254891
5291.15536588
5291.7021568
5292.33601404
5293.04381935
5293.81644128
5294.64425247
5295.51850673
5296.43054377
5297.37195429
5298.33449364
5299.310158
5300.29124366
5301.27042897
5302.24084564
5303.1961349
5304.1304776
5305.03859369
5305.91570803
5306.7574831
5307.55992133
5308.31924421
5309.03174005
5309.69363148
5310.30080227
5310.84887531
5311.33215746
5311.74573992
5312.07899647
5312.33204955
5312.47720509
5312.55283116
5312.47206161
5312.4268201
5312.1908204
5291.10288647
5290.94636019
5290.97375176
5291.04224433
5291.27726309
5291.61649507
5292.07653581
5292.63162706
5293.27452078
5293.99134864
5294.77243367
5295.60756232
5296.48745682
5297.40295145
5298.34518055
5299.30550162
5300.27558811
5301.2475031
5302.21379455
5303.16757609
5304.1025877
5305.01322446
5305.89452773
5306.74213562
5307.55219409
5308.32123027
5309.04599955
5309.72328882
5310.34974695
5310.92157036
5311.43453818
5311.88284704
5312.26127107
5312.55821156
5312.77324235
5312.8759687
5312.90702383
5312.77337366
5312.68327228
5312.40166046
5292.01108839
5291.84666215
5291.87389656
5291.94038322
5292.17829345
5292.52163674
5292.98803631
5293.55033285
5294.20091325
5294.92512379
5295.71271123
5296.55284504
5297.43568836
5298.35154637
5299.29107916
5300.24523615
5301.2053673
5302.16331317
5303.11151481
5304.04310492
5304.95197336
5305.83279362
5306.6810041
5307.49274111
5308.26472231
5308.99408928
5309.67820164
5310.31442347
5310.89990605
5311.43120666
5311.90427144
5312.31316203
5312.65227245
5312.90892409
5313.08199223
5313.13814721
5313.12024921
5312.92891299
5312.78962694
5312.45885468
5292.90631297
5292.73398835
5292.76085589
5292.82493535
5293.06522146
5293.41196049
5293.88380212
5294.45214236
5295.10897821
5295.8388389
5296.63086751
5297.47358988
5298.35658657
5299.26961409
5300.20284459
5301.14681327
5302.09255014
5303.03168829
5303.95658981
5304.86044837
5305.73735943
5306.58234381
5307.39131777
5308.16100227
5308.8887721
5309.57245773
5310.21012684
5310.7998104
5311.33921142
5311.82527283
5312.25411642
5312.61965189
5312.91582916
5313.12877569
5313.25649954
5313.26247607
5313.19149718
5312.93729508
5312.74391981
5312.36027181
5293.78289782
5293.60246808
5293.62873572
5293.6900047
5293.93214031
5294.28154921
5294.75789035
5295.33107605
5295.99268878
5296.72641419
5297.52076895
5298.36361407
5299.24392936
5300.1509084
5301.07422661
5302.00400367
5302.93095779
5303.84653399
5304.74304764
5305.61379928
5306.45314974
5307.25654042
5308.02044659
5308.74224938
5309.42006454
5310.05252873
5310.63850522
5311.17673695
5311.6655301
5312.1022532
5312.48320861
5312.80212592
5313.05243735
5313.2189713
5313.2987327
5313.25190741
5313.12539625
5312.80615666
5312.55499663
5312.11312565
5294.63461061
5294.44604123
5294.47157071
5294.52972535
5294.77323367
5295.12462008
5295.60452893
5296.18135994
5296.84626018
5297.58205291
5298.37661246
5299.21712118
5300.09194673
5300.98971186
5301.89959234
5302.81129628
5303.71524289
5304.60271268
5305.46601029
5306.2985923
5307.09514819
5307.85161251
5308.56508484
5309.23369469
5309.85641874
5310.43277357
5310.96247255
5311.4450474
5311.87945945
5312.26352332
5312.59371379
5312.86353395
5313.06579813
5313.18389878
5313.21361122
5313.1115858
5312.92646525
5312.53825593
5312.22698481
5311.72712075
5295.45555945
5295.2588578
5295.28355635
5295.33838389
5295.58285772
5295.93559184
5296.41817823
5296.99748451
5297.66420637
5298.40029554
5299.19297718
5300.02875027
5300.89536727
5301.78087961
5302.6739669
5303.56393508
5304.44092169
5305.29606999
5306.1217126
5306.91151404
5307.66055395
5308.36531783
5309.02360976
5309.63442396
5310.19766014
5310.71378063
5311.18343648
5311.60701216
5311.98416393
5312.31316735
5312.59065564
5312.80985268
5312.96284666
5313.03142566
5313.00986994
5312.85085974
5312.60458811
5312.14357647
5311.76869243
5311.20761503
5296.23987096
5296.0351449
5296.05901285
5296.11043822
5296.35558438
5296.70913816
5297.19358758
5297.77425954
5298.44139048
5299.17606448
5299.96486251
5300.79360686
5301.64944142
5302.51985408
5303.39303859
5304.25791342
5305.10435576
5305.92340154
5306.70745194
5307.45042915
5308.14785532
5308.79682766
5309.3959641
5309.94517848
5310.44535863
5310.89800457
5311.30477524
5311.6669628
5311.98495635
5312.25751123
5312.48140928
5312.64955493
5312.75322923
5312.77249788
5312.70002509
5312.48443959
5312.17748677
5311.64401538
5311.20434692
5310.57990842
5296.98185713
5296.76931849
5296.79248179
5296.8406084
5297.08629041
5297.44027419
5297.92587701
5298.50688892
5299.17309145
5299.90472167
5300.68773647
5301.50730137
5302.34996933
5303.20268111
5304.05316142
5304.88996074
5305.70272013
5306.48239946
5307.22150727
5307.9142695
5308.55668869
5309.14656947
5309.68339779
5310.16805894
5310.60251554
5310.98937348
5311.33136296
5311.63073785
5311.88866142
5312.10440425
5312.2748942
5312.39270587
5312.44826231
5312.41980483
5312.29818658
5312.02764964
5311.66099119
5311.05485708
5310.54960031
5309.86076273
5297.67597857
5297.45596971
5297.47874313
5297.5239171
5297.77020999
5298.12440817
5298.61057904
5299.19099677
5299.85501169
5300.58205639
5301.35750271
5302.16589441
5302.99322257
5303.82590569
5304.65122209
5305.45737717
5306.23380155
5306.97140936
5307.66285276
5308.30268624
5308.88746152
5309.41575031
5309.88793557
5310.30594886
5310.67288626
5310.99251693
5311.2686987
5311.50470578
5311.70252337
5311.86196079
5311.98011879
5312.04924346
5312.05886286
5311.98530704
5311.81743811
5311.49483707
5311.07101142
5310.39413383
5309.82422045
5309.07114976
5298.31698792
5298.09001813
5298.11299437
5298.15589487
5298.40315626
5298.75756731
5299.2438602
5299.82284
5300.48348005
5301.2044794
5301.97068655
5302.76607463
5303.57611295
5304.3867294
5305.18478243
5305.95815672
5306.69609729
5307.38949851
5308.03117902
5308.61605395
5309.14128389
5309.60622054
5310.0121981
5310.36224016
5310.66061661
5310.91230452
5311.12235043
5311.29510242
5311.43341195
5311.53768771
5311.60526529
5311.62812319
5311.59496072
5311.48022243
5311.27069143
5310.90109093
5310.42517186
5309.68199621
5309.05055959
5308.23467094
5298.89962256
5298.66645311
5298.69064489
5298.73240151
5298.98133442
5299.33617532
5299.82224755
5300.39897617
5301.05505847
5301.76856633
5302.52391267
5303.30456612
5304.0955232
5304.88225702
5305.651234
5306.39004139
5307.08775907
5307.73528276
5308.32560592
5308.85404515
5309.31838409
5309.71877767
5310.05754679
5310.33882883
5310.56809191
5310.75155093
5310.89549932
5311.0054133
5311.08507728
5311.13558662
5311.15462592
5311.13407491
5311.06197927
5310.91103199
5310.6660423
5310.25668439
5309.73643982
5308.93426423
5308.24693836
5307.37092095
5299.41961056
5299.18139157
5299.20841862
5299.25078025
5299.50252635
5299.85826139
5300.3438656
5300.91753899
5301.56787118
5302.27245332
5303.0153778
5303.77968553
5304.549953
5305.31123326
5306.04962524
5306.75243676
5307.40859567
5308.0090034
5308.54683696
5309.01783255
5309.42038366
5309.75547016
5310.02640863
5310.23844842
5310.39825917
5310.51330244
5310.59119072
5310.63858484
5310.66028428
5310.65820059
5310.63058267
5310.56948429
5310.46267315
5310.28151736
5310.00924812
5309.57050079
5309.01800263
5308.16907667
5307.43619145
5306.50529741
5299.87111623
5299.6297283
5299.66210286
5299.70757685
5299.963656
5300.32081088
5300.80555021
5301.37510431
5302.01821254
5302.71216882
5303.44088098
5304.18703909
5304.93484985
5305.66897375
5306.37515995
5307.04044602
5307.65361297
5308.20556101
5308.68965481
5309.10203372
5309.44168708
5309.71042292
5309.91255258
5310.05440941
5310.14384861
5310.1895493
5310.20056147
5310.18477002
5310.14808808
5310.09342993
5310.01989955
5309.92013719
5309.78227802
5309.57706021
5309.28698809
5308.83194196
5308.26359217
5307.38540707
5306.62242409
5305.6444601
5300.25327183
5300.01189187
5300.05330362
5300.10541882
5300.36783092
5300.72707609
5301.21053412
5301.77484999
5302.40927352
5303.09100591
5303.80391642
5304.53040726
5305.2543516
5305.96003073
5306.63284853
5307.25956795
5307.82881288
5308.33146261
5308.76105133
5309.11407708
5309.39008652
5309.59168774
5309.72418234
5309.79490503
5309.81286775
5309.78787824
5309.73063845
5309.65022237
5309.55378191
5309.44545061
5309.32556082
5309.18794522
5309.0220415
5308.79912175
5308.50262021
5308.04869806
5307.48853362
5306.609279
5305.84341435
5304.83421517
5300.55565304
5300.31953114
5300.37480405
5300.43756526
5300.707872
5301.06901296
5301.54977502
5302.10670966
5302.73000715
5303.39694249
5304.09146587
5304.79571571
5305.49324438
5306.1679475
5306.80487596
5307.39050477
5307.91327794
5308.36403367
5308.73643988
5309.0273035
5309.23667235
5309.36790488
5309.42735335
5309.42326069
5309.36569243
5309.26541067
5309.13520664
5308.98513828
5308.82378965
5308.65673244
5308.48593483
5308.30705537
5308.11195133
5307.87385859
5307.57952739
5307.1431979
5306.61761486
5305.77137285
5305.03856266
5304.02159856
5300.79064094
5300.56938585
5300.64476427
5300.72340197
5301.00346517
5301.36657648
5301.84376151
5302.39206094
5303.00307813
5303.65425943
5304.3297212
5305.0113205
5305.68228278
5306.32609802
5306.92744698
5307.47249374
5307.94947342
5308.34914589
5308.66525044
5308.89482931
5309.03832115
5309.09965157
5309.08634983
5309.00743014
5308.87371783
5308.69679147
5308.4921602
5308.27022679
5308.04128423
5307.81245723
5307.58771745
5307.36509746
5307.14003535
5306.8893935
5306.60648516
5306.2070245
5305.74964734
5304.98574514
5304.34206438
5303.36324384
5300.931049
5300.73531489
5300.83414167
5300.93017267
5301.21785347
5301.57954744
5302.04943108
5302.58528612
5303.18034526
5303.81208047
5304.46474047
5305.11981699
5305.76018213
5306.3688964
5306.93025913
5307.43010854
5307.8564517
5308.19994101
5308.45433943
5308.61687696
5308.68832493
5308.67296413
5308.57930454
5308.41846914
5308.19982118
5307.9368862
5307.64799928
5307.34338817
5307.03547389
5306.73287801
5306.44172352
5306.16257158
5305.89506532
5305.62063331
5305.34219972
5304.98061291
5304.60843269
5303.96572059
5303.47226155
5302.60303616
5301.0319052
5300.88316558
5301.00908473
5301.12607949
5301.42146948
5301.78189876
5302.24547859
5302.77094236
5303.353241
5303.96971235
5304.60470364
5305.23930283
5305.85604537
5306.4375842
5306.96786369
5307.43241125
5307.8189988
5308.11814768
5308.32357856
5308.43261304
5308.44624966
5308.36904607
5308.20941452
5307.98079971
5307.69255188
5307.35799366
5306.99838903
5306.6236448
5306.24818883
5305.88179185
5305.53247926
5305.20300625
5304.89702886
5304.60053343
5304.32715933
5304.00592818
5303.72827844
5303.23697316
5302.93062597
5302.24463989
5301.02917317
5300.92114786
5301.05788553
5301.18433062
5301.47688785
5301.82989983
5302.28335738
5302.79612481
5303.36381525
5303.96332691
5304.57892838
5305.1913575
5305.78290532
5306.33594777
5306.8341943
5307.26296655
5307.60988316
5307.86539212
5308.02321921
5308.0807668
5308.03923551
5307.9034896
5307.68240615
5307.38680814
5307.03466328
5306.63259989
5306.20532076
5305.76315282
5305.32190669
5304.89204568
5304.48269071
5304.09759449
5303.74245125
5303.40535299
5303.10724553
5302.78460463
5302.55093111
5302.1735594
5302.05921902
5301.6227835
5278.54930544
5278.57383948
5278.69309793
5278.84642333
5279.07493354
5279.3572534
5279.70333377
5280.10544576
5280.56364011
5281.07375055
5281.63315427
5282.23821001
5282.88540575
5283.57086195
5284.29054359
5285.04017366
5285.8152783
5286.6111733
5287.42301575
5288.24572077
5289.07427754
5289.90330354
5290.72738533
5291.54126608
5292.33942185
5293.11644366
5293.86693124
5294.58555909
5295.26709619
5295.90642679
5296.49863103
5297.03879218
5297.5226647
5297.94485761
5298.30337256
5298.58907856
5298.80879287
5298.94039599
5299.02098156
5299.00588318
5278.57364645
5278.5782985
5278.68071302
5278.82263262
5279.04283152
5279.31983813
5279.66175396
5280.06056331
5280.51557402
5281.02250932
5281.57853831
5282.1799847
5282.82328629
5283.50455588
5284.21975215
5284.96460411
5285.73464741
5286.52521722
5287.33148857
5288.14845226
5288.97108331
5289.79401785
5290.61187632
5291.41947821
5292.21136632
5292.98218058
5293.72658122
5294.43931357
5295.1152292
5295.74931736
5296.33679919
5296.87300012
5297.35403709
5297.77531669
5298.13600234
5298.42927885
5298.6650046
5298.82293287
5298.94021834
5298.94869201
5278.70487502
5278.69368843
5278.78489183
5278.91439653
5279.12503849
5279.39579409
5279.73404981
5280.13135743
5280.58613749
5281.0937439
5281.65096692
5282.25396357
5282.89903562
5283.58222373
5284.29943052
5285.04634773
5285.81848106
5286.61114564
5287.41949576
5288.23851678
5289.06310284
5289.88793679
5290.70770095
5291.51711176
5292.31077952
5293.08336017
5293.8295551
5294.54416856
5295.22214821
5295.85863358
5296.44908126
5296.98918705
5297.47560246
5297.90451348
5298.27593749
5298.58367685
5298.83745408
5299.01332933
5299.14351648
5299.1529299
5278.87429674
5278.85260069
5278.93157869
5279.04883023
5279.24966439
5279.51372532
5279.847975
5280.24355642
5280.69809748
5281.20651598
5281.76519226
5282.37006421
5283.0172653
5283.70273531
5284.42230065
5285.17159931
5285.9460943
5286.74106874
5287.55164637
5288.37279563
5289.19937356
5290.02610068
5290.84765583
5291.65873546
5292.45398788
5293.22810701
5293.97585229
5294.69210838
5295.37194147
5296.01066297
5296.60398325
5297.14795886
5297.63973754
5298.07609724
5298.45769159
5298.7783391
5299.04772321
5299.23776237
5299.3800006
5299.38464559
5279.12859065
5279.09914089
5279.16888844
5279.27650024
5279.46989309
5279.72923109
5280.06149863
5280.4574975
5280.91425346
5281.42624862
5281.989469
5282.59960152
5283.25258609
5283.94422935
5284.67025215
5285.42620866
5286.20748977
5287.00931592
5287.82675233
5288.65471958
5289.48802662
5290.32137896
5291.14943934
5291.96686589
5292.76831054
5293.5484778
5294.30216042
5295.02429885
5295.71004967
5296.35485786
5296.95462894
5297.50567211
5298.00545876
5298.45102915
5298.84327334
5299.17544113
5299.45692069
5299.65606373
5299.80500351
5299.80575848
5279.44319085
5279.40877868
5279.47261815
5279.57375765
5279.76253053
5280.01940306
5280.3516462
5280.74978841
5281.21045062
5281.72773926
5282.29730532
5282.91459228
5283.57534645
5284.27522778
5285.00983564
5285.77462192
5286.5648869
5287.37577026
5288.20226353
5289.03922449
5289.88140528
5290.723474
5291.56005704
5292.38577702
5293.19527199
5293.98324414
5294.74450196
5295.47401926
5296.16700892
5296.81899564
5297.42599536
5297.98443474
5298.49192089
5298.94548517
5299.34600763
5299.68594155
5299.97454215
5300.1772109
5300.32788638
5300.32269661
5279.82928469
5279.79085658
5279.85130342
5279.94862698
5280.13554614
5280.39243565
5280.7269958
5281.12948474
5281.59625755
5282.12109623
5282.69936993
5283.32629074
5283.99741336
5284.70823941
5285.45423067
5286.23071688
5287.03288709
5287.85577906
5288.69429071
5289.54319632
5290.39717312
5291.25082755
5292.09873158
5292.93545801
5293.75561031
5294.55386648
5295.32502376
5296.0640558
5296.7661866
5297.42695742
5298.04240573
5298.60895152
5299.12418373
5299.58493991
5299.99196975
5300.33690281
5300.6291817
5300.83198031
5300.98202844
5300.97132487
5280.2780165
5280.23634277
5280.29549427
5280.39123215
5280.57868507
5280.83776266
5281.17668123
5281.58541005
5282.06013624
5282.59435955
5283.18321115
5283.82168524
5284.50514848
5285.22893581
5285.98835832
5286.77860739
5287.59474345
5288.43168507
5289.28422014
5290.14702352
5291.01468306
5291.8817279
5292.74266191
5293.59199808
5294.42429171
5295.23418128
5296.01643265
5296.76599231
5297.47805784
5298.14813447
5298.77220979
5299.34660253
5299.86877587
5300.3352557
5300.74661231
5301.09365394
5301.38630583
5301.5858431
5301.73265644
5301.71484458
5280.78940328
5280.74450449
5280.80354018
5280.89908702
5281.08880827
5281.35178847
5281.69679283
5282.11344224
5282.59780158
5283.1431005
5283.74425428
5284.39604241
5285.09364036
5285.83220533
5286.60688312
5287.41270977
5288.24459969
5289.097335
5289.96557752
5290.84388782
5291.72675117
5292.60860666
5293.48387953
5294.34701426
5295.19250805
5296.01494864
5296.80905585
5297.56972951
5298.29211324
5298.9716402
5299.60420206
5300.18596062
5300.71420095
5301.18509118
5301.59905366
5301.94613125
5302.23706593
5302.431395
5302.57392925
5302.54839039
5281.35872551
5281.31053864
5281.37028218
5281.46658915
5281.65985428
5281.92804156
5282.28049577
5282.70642258
5283.20178346
5283.75953333
5284.37437722
5285.04087428
5285.75399995
5286.50871965
5287.29999774
5288.12269772
5288.97157115
5289.841248
5290.72624992
5291.6210105
5292.51990274
5293.41726802
5294.30744733
5295.18481343
5296.04380238
5296.87894782
5297.68491817
5298.45655803
5299.18894438
5299.87741998
5300.51775762
5301.10593483
5301.63903869
5302.11286187
5302.52772303
5302.87291628
5303.16026435
5303.34749793
5303.48455754
5303.44998511
5281.98300297
5281.93124717
5281.99213677
5282.0897265
5282.2873902
5282.56171815
5282.92266274
5283.3589394
5283.86640389
5284.43771599
5285.06736184
5285.74966532
5286.4793865
5287.25128113
5288.06011379
5288.90055706
5289.76718241
5290.65445227
5291.55673539
5292.46832878
5293.38348588
5294.29644685
5295.20146824
5296.09285315
5296.96498038
5297.81233412
5298.62953559
5299.41137658
5300.15286901
5300.8492629
5301.49620853
5302.08949384
5302.62601068
5303.10117591
5303.51525803
5303.85679957
5304.13894343
5304.31745162
5304.44809638
5304.40333284
5282.65811712
5282.60247165
5282.66477887
5282.76394258
5282.96658832
5283.24771556
5283.6179199
5284.06535344
5284.58575473
5285.17145945
5285.81671726
5286.51559549
5287.26261853
5288.05231133
5288.87921813
5289.73780114
5290.62243434
5291.52739802
5292.4468968
5293.3750838
5294.30609024
5295.23405558
5296.15315711
5297.05763738
5297.94182964
5298.80018218
5299.62728343
5300.4178867
5301.16695127
5301.86964574
5302.52150772
5303.11814249
5303.65625834
5304.13089502
5304.54231258
5304.87826651
5305.15342609
5305.32136215
5305.44441528
5305.38805395
5283.38007694
5283.3201574
5283.38401048
5283.48485349
5283.69284798
5283.98120595
5284.36120546
5284.820363
5285.35428259
5285.9549408
5286.61632679
5287.33222499
5288.0968997
5288.90462098
5289.74969005
5290.62633825
5291.52872447
5292.45093289