/*--------------------------------*- C++ -*----------------------------------*\
| =========                 |                                                 |
| \\      /  F ield         | foam-extend: Open Source CFD                    |
|  \\    /   O peration     | Version:     4.1                                |
|   \\  /    A nd           | Web:         http://www.foam-extend.org         |
|    \\/     M anipulation  |                                                 |
\*---------------------------------------------------------------------------*/
FoamFile
{
    version     2.0;
    format      ascii;
    class       pointVectorField;
    location    "0.3";
    object      pointDisplacement;
}
// * * * * * * * * * * * * * * * * * * * * * * * * * * * * * * * * * * * * * //

dimensions      [0 1 0 0 0 0 0];

internalField   uniform (0 0 0);

boundaryField
{
    stationaryWalls
    {
        type            fixedValue;
        value           uniform (0 0 0);
    }
    atmosphere
    {
        type            fixedValue;
        value           uniform (0 0 0);
    }
    floatingObject
    {
        type            sixDoFRigidBodyDisplacement;
        centreOfMass    (0.5 0.5 0.5);
        orientation     (1 0 0 0 1 0 0 0 1);
        velocity        (0 0 -0.04905);
        acceleration    (0 0 -9.81);
        angularMomentum (0 0 0);
        torque          (0 0 0);
        initialCentreOfMass (0.5 0.5 0.5);
        initialOrientation (1 0 0 0 1 0 0 0 1);
        momentOfInertia (0.08622222 0.08622222 0.144);
        mass            9.6;
        report          true;
        rhoInf          1;
        initialPoints   nonuniform 0();
        value           nonuniform 0();
    }
}


// ************************************************************************* //
