/*--------------------------------*- C++ -*----------------------------------*\
| =========                 |                                                 |
| \\      /  F ield         | foam-extend: Open Source CFD                    |
|  \\    /   O peration     | Version:     4.1                                |
|   \\  /    A nd           | Web:         http://www.foam-extend.org         |
|    \\/     M anipulation  |                                                 |
\*---------------------------------------------------------------------------*/
FoamFile
{
    version     2.0;
    format      ascii;
    class       volScalarField;
    location    "0.1";
    object      alpha1;
}
// * * * * * * * * * * * * * * * * * * * * * * * * * * * * * * * * * * * * * //

dimensions      [0 0 0 0 0 0 0];

internalField   nonuniform List<scalar> 
96000
(
0.999999438493
0.999999383928
0.99999943074
0.99999948001
0.999999497055
0.99999949155
0.999999480082
0.9999994712
0.999999466324
0.999999463844
0.999999461993
0.999999459963
0.999999457829
0.999999456022
0.999999454885
0.999999454533
0.999999454755
0.999999455366
0.99999945636
0.999999457574
0.999999458956
0.999999460468
0.99999946213
0.999999463925
0.999999465801
0.999999467729
0.999999469686
0.999999471655
0.999999473664
0.999999475918
0.999999478953
0.999999483608
0.99999949054
0.999999499295
0.999999507627
0.999999512315
0.999999512185
0.999999508094
0.999999497927
0.999999609407
0.999999382634
0.999999368994
0.999999431726
0.999999483612
0.999999499464
0.999999493241
0.999999481964
0.999999473663
0.99999946932
0.99999946714
0.999999465373
0.999999463327
0.999999461203
0.999999459505
0.999999458573
0.999999458441
0.999999458979
0.999999459997
0.999999461312
0.999999462856
0.999999464583
0.999999466469
0.999999468486
0.999999470595
0.999999472753
0.999999474922
0.999999477063
0.999999479136
0.999999481166
0.999999483423
0.999999486606
0.999999491769
0.999999499627
0.999999509322
0.999999517628
0.999999520289
0.999999516125
0.999999507444
0.999999497161
0.999999613173
0.999999426463
0.999999428329
0.999999498343
0.999999553591
0.999999571921
0.999999567859
0.999999558185
0.999999550989
0.999999547421
0.999999545825
0.999999544517
0.999999542846
0.99999954106
0.999999539701
0.999999539126
0.999999539366
0.999999540248
0.999999541564
0.99999954316
0.999999544954
0.999999546903
0.999999548977
0.999999551134
0.999999553329
0.999999555516
0.999999557652
0.999999559681
0.999999561527
0.999999563166
0.999999564848
0.99999956736
0.99999957196
0.999999579539
0.999999589015
0.999999596187
0.999999595265
0.999999583908
0.999999564928
0.999999542474
0.999999640423
0.999999471768
0.999999475904
0.999999549431
0.999999608906
0.999999630868
0.999999629267
0.999999620989
0.999999614558
0.999999611535
0.999999610444
0.999999609621
0.999999608403
0.999999607052
0.999999606136
0.999999606011
0.999999606694
0.999999607991
0.999999609671
0.999999611583
0.999999613639
0.999999615798
0.999999618025
0.999999620277
0.999999622507
0.99999962467
0.999999626728
0.999999628609
0.999999630191
0.999999631376
0.999999632358
0.999999633989
0.999999637767
0.999999644859
0.999999654107
0.999999660453
0.999999656523
0.999999638648
0.999999610261
0.99999957783
0.999999660844
0.99999948496
0.999999487952
0.999999564518
0.999999628035
0.999999653094
0.999999653116
0.999999645498
0.999999639348
0.999999636598
0.999999635871
0.999999635457
0.999999634648
0.999999633719
0.999999633241
0.999999633545
0.99999963467
0.999999636357
0.999999638369
0.99999964055
0.999999642802
0.99999964509
0.999999647395
0.999999649665
0.99999965186
0.999999653949
0.999999655903
0.999999657646
0.999999659001
0.999999659769
0.999999660054
0.999999660748
0.999999663605
0.999999670139
0.999999679371
0.999999685765
0.999999680753
0.999999659558
0.999999626072
0.999999588939
0.999999666874
0.999999476929
0.99999947983
0.99999955948
0.999999626195
0.999999653144
0.999999653878
0.999999646326
0.999999640167
0.999999637564
0.999999637128
0.999999637073
0.999999636651
0.999999636119
0.999999636065
0.999999636835
0.999999638368
0.999999640422
0.999999642729
0.999999645116
0.999999647512
0.999999649884
0.999999652198
0.999999654425
0.999999656534
0.999999658515
0.99999966036
0.999999661994
0.999999663193
0.999999663644
0.999999663314
0.999999663045
0.999999664787
0.999999670564
0.999999679759
0.999999686764
0.999999682342
0.999999660831
0.999999626192
0.999999588274
0.99999966647
0.999999465283
0.999999469575
0.999999551961
0.999999620866
0.999999648754
0.99999964954
0.99999964176
0.999999635509
0.999999633057
0.999999632949
0.999999633252
0.999999633213
0.999999633097
0.999999633447
0.999999634638
0.999999636572
0.999999638953
0.999999641505
0.999999644061
0.99999964655
0.999999648951
0.999999651242
0.999999653398
0.999999655401
0.999999657262
0.999999659005
0.999999660572
0.999999661706
0.99999966198
0.999999661196
0.999999660178
0.999999660847
0.999999665564
0.999999674442
0.999999682036
0.999999678929
0.999999658813
0.99999962521
0.999999588283
0.999999667422
0.999999459165
0.999999465413
0.999999550028
0.999999620351
0.999999648588
0.999999649123
0.999999641031
0.999999634694
0.999999632455
0.99999963264
0.999999633288
0.999999633677
0.999999634018
0.999999634885
0.999999636551
0.999999638898
0.999999641614
0.999999644414
0.999999647134
0.999999649717
0.999999652149
0.999999654418
0.999999656506
0.999999658407
0.999999660155
0.999999661812
0.999999663349
0.9999996645
0.999999664743
0.999999663708
0.999999661956
0.999999661616
0.999999665344
0.999999673554
0.999999681384
0.999999679466
0.999999661093
0.999999629184
0.999999593353
0.999999672283
0.999999459287
0.999999467631
0.999999553984
0.999999625269
0.999999653585
0.999999653774
0.999999645356
0.999999638957
0.999999636841
0.999999637377
0.99999963852
0.999999639386
0.999999640233
0.999999641605
0.999999643746
0.999999646504
0.999999649544
0.999999652576
0.999999655444
0.999999658102
0.999999660549
0.999999662782
0.999999664792
0.999999666582
0.999999668211
0.999999669773
0.999999671282
0.999999672478
0.999999672775
0.999999671645
0.999999669483
0.999999668289
0.999999670924
0.999999678274
0.999999685953
0.99999968481
0.999999667875
0.999999637442
0.999999602716
0.999999679748
0.999999463034
0.99999947321
0.999999560897
0.999999632878
0.99999966116
0.999999660956
0.999999652196
0.999999645718
0.999999643805
0.999999644709
0.999999646294
0.999999647658
0.999999649014
0.999999650878
0.999999653463
0.999999656588
0.999999659902
0.999999663112
0.999999666072
0.999999668748
0.999999671154
0.999999673302
0.999999675191
0.999999676836
0.999999678312
0.999999679745
0.999999681187
0.999999682398
0.999999682749
0.99999968158
0.999999679104
0.999999677208
0.999999678854
0.999999685296
0.999999692622
0.999999691938
0.999999676125
0.999999646797
0.999999612727
0.999999687349
0.999999467742
0.999999479199
0.999999567912
0.999999640404
0.999999668576
0.999999667927
0.999999658796
0.999999652221
0.999999650491
0.999999651763
0.999999653802
0.999999655641
0.999999657461
0.999999659752
0.9999996627
0.999999666103
0.999999669597
0.99999967289
0.999999675842
0.999999678439
0.999999680711
0.999999682688
0.999999684382
0.99999968582
0.999999687091
0.999999688345
0.999999689663
0.999999690823
0.999999691166
0.999999689923
0.999999687143
0.9999996846
0.999999685325
0.999999690898
0.99999969785
0.99999969755
0.999999682686
0.999999654304
0.99999962066
0.99999969313
0.999999471732
0.999999484182
0.999999573691
0.999999646557
0.999999674542
0.99999967343
0.999999663909
0.999999657231
0.999999655681
0.99999965731
0.999999659771
0.999999662027
0.999999664229
0.999999666845
0.999999670045
0.999999673608
0.999999677161
0.999999680412
0.999999683235
0.999999685629
0.999999687649
0.999999689346
0.999999690752
0.99999969191
0.999999692921
0.999999693952
0.999999695102
0.999999696156
0.999999696417
0.999999695017
0.999999691858
0.999999688616
0.999999688402
0.999999693125
0.999999699748
0.999999699881
0.99999968601
0.999999658528
0.999999625205
0.999999696221
0.99999947486
0.999999488182
0.999999578347
0.999999651507
0.999999679279
0.999999677708
0.999999667813
0.999999661044
0.999999659675
0.999999661637
0.999999664466
0.99999966706
0.999999669541
0.999999672368
0.999999675696
0.999999679291
0.999999682773
0.999999685852
0.999999688411
0.999999690473
0.999999692116
0.99999969342
0.999999694443
0.999999695248
0.999999695953
0.999999696735
0.999999697701
0.999999698625
0.999999698758
0.999999697121
0.999999693456
0.999999689469
0.999999688152
0.999999691945
0.999999698221
0.999999698829
0.999999685984
0.999999659403
0.999999626361
0.999999696598
0.999999477727
0.999999491948
0.999999582711
0.999999656128
0.999999683704
0.999999681704
0.999999671469
0.999999664628
0.999999663432
0.99999966569
0.999999668822
0.999999671663
0.999999674316
0.999999677236
0.999999680568
0.999999684067
0.999999687346
0.999999690119
0.999999692283
0.999999693883
0.999999695029
0.999999695831
0.99999969638
0.999999696781
0.99999969717
0.999999697685
0.99999969847
0.999999699269
0.999999699275
0.999999697314
0.999999693078
0.999999688037
0.999999685543
0.999999688232
0.999999694035
0.999999695042
0.999999683218
0.99999965745
0.999999624503
0.999999694633
0.99999948104
0.999999496265
0.999999587602
0.999999661268
0.99999968867
0.999999686276
0.999999675732
0.999999668826
0.999999667781
0.999999670285
0.999999673643
0.999999676636
0.999999679355
0.999999682249
0.99999968546
0.999999688734
0.999999691677
0.999999694009
0.999999695646
0.999999696659
0.999999697191
0.999999697406
0.99999969742
0.999999697305
0.999999697267
0.999999697514
0.999999698139
0.999999698848
0.999999698718
0.999999696486
0.999999691575
0.9999996854
0.999999681456
0.999999682801
0.999999687912
0.999999689158
0.999999678197
0.999999653115
0.99999961991
0.999999690562
0.999999485281
0.999999501625
0.999999593517
0.999999667409
0.999999694648
0.999999691877
0.999999681032
0.99999967405
0.99999967312
0.999999675808
0.999999679311
0.999999682359
0.999999685031
0.999999687779
0.999999690741
0.999999693652
0.99999969612
0.999999697872
0.999999698848
0.999999699148
0.999999698949
0.999999698479
0.999999697803
0.999999697147
0.999999696688
0.999999696646
0.999999697122
0.99999969776
0.999999697515
0.999999694969
0.99999968931
0.999999681848
0.999999676226
0.999999675952
0.999999680098
0.999999681338
0.999999671003
0.999999646423
0.999999612807
0.999999684332
0.999999490647
0.99999950821
0.999999600622
0.999999674703
0.999999701752
0.999999698603
0.999999687446
0.999999680363
0.999999679503
0.99999968231
0.999999685874
0.999999688874
0.999999691385
0.99999969386
0.999999696433
0.999999698838
0.999999700684
0.999999701714
0.999999701893
0.999999701348
0.999999700365
0.999999699026
0.999999697635
0.999999696362
0.999999695446
0.999999695104
0.99999969539
0.999999695964
0.9999996956
0.999999692703
0.999999686211
0.999999677304
0.999999669764
0.999999667582
0.999999670452
0.999999671393
0.999999661524
0.999999637077
0.999999602844
0.999999675761
0.999999497159
0.999999516021
0.9999996089
0.999999683108
0.999999709937
0.999999706381
0.999999694894
0.99999968768
0.999999686843
0.999999689701
0.999999693238
0.999999696088
0.999999698316
0.999999700381
0.999999702421
0.999999704169
0.999999705242
0.999999705405
0.999999704647
0.99999970316
0.999999701195
0.999999698993
0.999999696811
0.999999694895
0.999999693399
0.999999692671
0.999999692795
0.999999693283
0.999999692828
0.999999689528
0.999999682098
0.99999967157
0.99999966186
0.999999657459
0.999999658718
0.999999659046
0.999999649288
0.99999962489
0.999999589722
0.999999664641
0.999999504754
0.999999524977
0.99999961826
0.999999692527
0.999999719087
0.9999997151
0.999999703264
0.99999969589
0.999999695028
0.99999969787
0.999999701293
0.999999703883
0.999999705701
0.999999707217
0.999999708573
0.999999709511
0.999999709662
0.999999708815
0.999999707003
0.999999704432
0.999999701412
0.999999698241
0.999999695236
0.999999692546
0.999999690547
0.99999968948
0.999999689403
0.999999689787
0.999999689169
0.999999685398
0.999999676913
0.999999664577
0.999999652433
0.999999645487
0.999999644778
0.999999644152
0.999999634225
0.999999609588
0.999999573353
0.999999650957
0.999999513341
0.999999534964
0.999999628584
0.999999702839
0.999999729083
0.999999724647
0.99999971244
0.999999704875
0.99999970394
0.999999706695
0.999999709911
0.999999712129
0.999999713408
0.999999714232
0.999999714755
0.999999714733
0.999999713819
0.999999711834
0.999999708852
0.999999705131
0.999999701009
0.999999696828
0.999999692898
0.999999689509
0.999999686961
0.999999685531
0.999999685257
0.999999685532
0.999999684724
0.999999680425
0.999999670776
0.999999656456
0.999999641631
0.999999631817
0.99999962879
0.999999626873
0.999999616516
0.999999591456
0.99999955407
0.999999635049
0.999999522783
0.999999545826
0.999999639721
0.999999713893
0.99999973978
0.999999734869
0.99999972227
0.999999714479
0.999999713414
0.999999716005
0.999999718917
0.999999720648
0.999999721259
0.999999721252
0.999999720801
0.99999971968
0.999999717573
0.999999714341
0.999999710102
0.999999705158
0.999999699893
0.999999694682
0.999999689869
0.999999685769
0.999999682699
0.999999680941
0.999999680503
0.999999680691
0.9999996797
0.999999674847
0.999999663962
0.999999647528
0.999999629819
0.999999616868
0.999999611219
0.999999607733
0.999999596769
0.999999571214
0.999999532736
0.999999617703
0.999999532874
0.999999557348
0.999999651453
0.999999725475
0.999999750967
0.999999745552
0.999999732538
0.999999724477
0.999999723217
0.999999725555
0.999999728057
0.999999729181
0.999999728998
0.999999728029
0.999999726473
0.999999724134
0.999999720731
0.99999971617
0.999999710615
0.999999704422
0.999999698009
0.99999969179
0.999999686134
0.999999681378
0.999999677852
0.999999675834
0.999999675298
0.999999675457
0.999999674326
0.999999668941
0.999999656809
0.999999638213
0.999999617502
0.999999601242
0.999999592775
0.999999587571
0.999999575979
0.999999550046
0.99999951076
0.999999600152
0.99999954337
0.999999569217
0.999999663516
0.999999737302
0.999999762356
0.999999756421
0.999999742963
0.999999734581
0.999999733049
0.999999735035
0.999999737012
0.99999973741
0.999999736309
0.999999734259
0.99999973149
0.99999972784
0.99999972307
0.999999717133
0.999999710252
0.999999702821
0.999999695304
0.999999688141
0.999999681724
0.999999676406
0.999999672523
0.999999670343
0.999999669802
0.999999670016
0.99999966882
0.99999966297
0.999999649651
0.999999629129
0.999999605227
0.999999585621
0.999999574298
0.999999567421
0.999999555419
0.999999529293
0.999999489977
0.999999583987
0.999999554041
0.999999581168
0.999999675562
0.999999749047
0.999999773636
0.999999767162
0.999999753242
0.999999744496
0.999999742615
0.999999744146
0.99999974548
0.99999974503
0.999999742895
0.999999739663
0.999999735599
0.99999973058
0.999999724412
0.999999717104
0.999999708927
0.999999700325
0.999999691794
0.9999996838
0.999999676746
0.999999670992
0.999999666873
0.999999664641
0.999999664191
0.999999664546
0.999999663368
0.999999657146
0.999999642982
0.999999620002
0.999999593468
0.99999957066
0.999999556665
0.999999548431
0.999999536526
0.999999511231
0.999999471979
0.999999570993
0.999999564604
0.999999592914
0.999999687253
0.999999760393
0.999999784495
0.99999977748
0.999999763127
0.999999754001
0.999999751716
0.999999752702
0.999999753287
0.999999751877
0.999999748609
0.999999744115
0.999999738706
0.999999732302
0.999999724755
0.999999716129
0.999999706746
0.999999697091
0.999999687689
0.999999679016
0.99999967148
0.999999665435
0.999999661204
0.999999659019
0.999999658728
0.999999659274
0.999999658157
0.999999651653
0.99999963713
0.999999611382
0.999999582791
0.999999556962
0.999999540703
0.999999531715
0.999999520786
0.999999497504
0.999999461272
0.999999563097
0.999999574834
0.99999960413
0.999999698414
0.999999771103
0.999999794706
0.999999787226
0.999999772464
0.999999762989
0.999999760293
0.999999760688
0.999999760449
0.999999757993
0.999999753515
0.99999974771
0.999999740942
0.999999733178
0.999999724322
0.999999714485
0.999999704037
0.999999693496
0.999999683403
0.999999674236
0.999999666389
0.999999660196
0.999999655955
0.999999653872
0.999999653744
0.999999654455
0.999999653412
0.999999647128
0.999999631044
0.999999603569
0.999999573142
0.999999544994
0.999999527102
0.999999518244
0.999999509483
0.999999490249
0.999999457254
0.99999956214
0.999999584678
0.999999614888
0.999999708912
0.999999781062
0.999999804145
0.999999796217
0.999999781149
0.999999771401
0.99999976834
0.999999768151
0.999999767059
0.999999763511
0.99999975778
0.999999750641
0.999999742529
0.999999733465
0.999999723404
0.999999712501
0.999999701163
0.99999968993
0.999999679346
0.999999669874
0.999999661877
0.999999655653
0.999999651461
0.999999649461
0.999999649438
0.999999650232
0.999999649183
0.999999642906
0.999999625744
0.999999597396
0.999999564388
0.999999534992
0.9999995163
0.999999508473
0.999999503719
0.999999489784
0.999999462255
0.999999569161
0.999999594281
0.999999625305
0.999999718843
0.999999790284
0.99999981274
0.999999804359
0.999999788995
0.999999779028
0.999999775654
0.999999774915
0.999999772975
0.999999768318
0.999999761306
0.999999752821
0.999999743382
0.999999733082
0.999999721919
0.999999710091
0.999999698028
0.999999686282
0.999999675382
0.999999665758
0.999999657728
0.999999651532
0.999999647369
0.999999645387
0.999999645343
0.999999646066
0.999999644879
0.999999638523
0.999999620597
0.999999591692
0.999999556299
0.999999526655
0.999999508147
0.999999503728
0.999999504123
0.99999949727
0.999999475563
0.999999584658
0.99999960396
0.999999635656
0.999999728501
0.999999798902
0.999999820476
0.999999811442
0.999999795656
0.999999785387
0.999999781656
0.999999780341
0.999999777525
0.999999771715
0.999999763369
0.999999753489
0.999999742696
0.999999731158
0.999999718933
0.999999706249
0.999999693551
0.999999681385
0.999999670251
0.999999660532
0.999999652484
0.999999646268
0.999999642052
0.99999963994
0.999999639683
0.999999640136
0.999999638665
0.999999632141
0.99999961385
0.999999584306
0.999999548131
0.999999518679
0.999999501817
0.999999501732
0.999999509263
0.999999512773
0.999999501106
0.999999609032
0.999999614178
0.999999646534
0.999999738289
0.999999807274
0.999999827566
0.999999817461
0.999999800884
0.999999789975
0.999999785619
0.999999783525
0.999999779673
0.999999772567
0.999999762742
0.999999751313
0.999999739022
0.999999726126
0.999999712739
0.99999969912
0.999999685717
0.999999673058
0.999999661603
0.999999651676
0.999999643451
0.999999637043
0.999999632557
0.999999630065
0.999999629339
0.9999996293
0.99999962759
0.999999621235
0.999999602241
0.999999572151
0.999999537263
0.999999508616
0.999999494941
0.999999500934
0.999999519306
0.999999534959
0.999999533746
0.999999641459
0.999999625441
0.99999965846
0.999999748911
0.999999816136
0.999999834751
0.999999823086
0.999999805148
0.999999793018
0.999999787509
0.9999997842
0.99999977896
0.999999770258
0.999999758674
0.999999745423
0.999999731357
0.999999716827
0.99999970201
0.999999687189
0.999999672812
0.999999659375
0.999999647296
0.999999636829
0.999999628085
0.999999621121
0.999999615991
0.999999612751
0.999999611221
0.999999610705
0.999999608703
0.999999601012
0.999999582048
0.999999551862
0.99999952092
0.999999493867
0.999999485257
0.99999950012
0.999999530184
0.999999560326
0.999999575307
0.99999967997
0.999999638129
0.999999671969
0.999999761085
0.999999826543
0.99999984339
0.999999829911
0.999999810107
0.999999796184
0.999999788894
0.999999783801
0.999999776702
0.999999766019
0.999999752341
0.999999736945
0.999999720772
0.99999970426
0.999999687645
0.999999671233
0.999999655464
0.999999640805
0.999999627625
0.999999616108
0.999999606338
0.999999598314
0.999999592051
0.99999958762
0.999999584996
0.999999582962
0.999999579177
0.999999570491
0.999999553313
0.999999525852
0.99999949716
0.999999473851
0.999999472856
0.999999498644
0.999999543942
0.999999592621
0.999999623151
0.999999724477
0.999999652108
0.9999996869
0.999999774989
0.999999839096
0.999999854624
0.999999839635
0.999999818009
0.999999802079
0.999999792633
0.999999785351
0.999999776052
0.999999763136
0.999999747174
0.999999729459
0.999999710987
0.999999692263
0.999999673569
0.99999965523
0.999999637676
0.999999621346
0.999999606558
0.99999959349
0.999999582184
0.999999572604
0.999999564771
0.999999558775
0.999999554575
0.999999551483
0.999999547522
0.999999539305
0.999999523366
0.999999499162
0.999999472084
0.999999457032
0.999999463153
0.999999500744
0.999999564913
0.99999963249
0.99999968014
0.999999777673
0.999999666247
0.999999701848
0.999999789107
0.99999985241
0.999999867436
0.999999851877
0.999999829158
0.99999981172
0.999999800358
0.999999790982
0.999999779563
0.999999764546
0.999999746483
0.999999726648
0.999999706041
0.999999685198
0.999999664432
0.99999964408
0.999999624568
0.99999960632
0.999999589651
0.999999574733
0.999999561621
0.999999550311
0.999999540851
0.999999533382
0.999999527969
0.999999524102
0.999999519854
0.999999512836
0.999999499243
0.999999479023
0.999999458008
0.999999451198
0.999999468049
0.99999951988
0.999999602818
0.999999689265
0.999999754134
0.999999844949
0.999999678354
0.999999713885
0.999999799705
0.999999861957
0.999999876906
0.99999986176
0.999999839219
0.999999821358
0.999999808958
0.999999798175
0.999999785231
0.999999768705
0.999999749146
0.999999727772
0.999999705551
0.999999683012
0.999999660484
0.99999963832
0.999999616954
0.999999596832
0.999999578308
0.999999561637
0.999999546952
0.999999534337
0.999999523924
0.999999515939
0.999999510564
0.999999507461
0.999999505655
0.999999501102
0.999999492291
0.999999478791
0.999999466795
0.999999468637
0.99999949931
0.99999956917
0.9999996691
0.999999772671
0.999999853317
0.999999931542
0.999999686389
0.999999720282
0.999999802433
0.999999861683
0.999999875636
0.999999861149
0.999999839794
0.99999982259
0.999999810296
0.999999799019
0.999999785349
0.999999768049
0.999999747683
0.999999725397
0.99999970211
0.999999678322
0.999999654351
0.99999963062
0.999999607596
0.999999585805
0.999999565728
0.99999954777
0.999999532233
0.999999519367
0.999999509441
0.999999502797
0.999999499733
0.99999950009
0.999999502663
0.999999505034
0.999999504734
0.999999501989
0.999999501065
0.999999516581
0.999999565006
0.999999651827
0.999999766809
0.999999885142
0.99999997786
1.0000000332
0.999999691112
0.999999721839
0.999999796709
0.999999849264
0.999999859852
0.999999845096
0.999999825003
0.999999809038
0.999999797331
0.999999786103
0.999999772136
0.999999754377
0.999999733412
0.999999710545
0.999999686303
0.999999661176
0.999999635975
0.99999961071
0.999999586107
0.999999562826
0.999999541608
0.999999523033
0.999999507628
0.999999495777
0.999999488049
0.999999484795
0.999999486429
0.999999492968
0.999999503366
0.999999515486
0.99999952714
0.999999537375
0.999999553818
0.999999587922
0.999999652887
0.999999754899
0.999999883731
1.0000000109
1.0000001121
1.00000013987
0.999999695794
0.999999722925
0.999999787178
0.999999829703
0.999999834633
0.999999818195
0.999999798487
0.999999783264
0.999999771793
0.999999760224
0.999999745589
0.99999972699
0.999999704994
0.999999680677
0.999999655007
0.999999628271
0.999999601021
0.999999573733
0.999999547344
0.999999522901
0.999999500813
0.999999482109
0.999999467388
0.999999457844
0.999999453341
0.99999945448
0.999999461819
0.999999475564
0.999999494827
0.999999517749
0.999999542363
0.999999567867
0.999999601774
0.999999653603
0.999999735625
0.99999985236
0.999999991474
1.00000012664
1.00000023326
1.00000023374
0.999999701033
0.999999727641
0.999999779799
0.999999811252
0.999999810222
0.999999791575
0.999999771526
0.999999755914
0.999999743504
0.9999997305
0.999999714123
0.999999693613
0.999999669587
0.999999643045
0.999999614818
0.999999585522
0.999999555751
0.999999526252
0.999999497938
0.999999471816
0.999999448922
0.999999430228
0.999999416215
0.999999409304
0.999999407927
0.999999411764
0.999999424153
0.999999443934
0.999999470501
0.999999501891
0.999999537237
0.999999576493
0.999999625202
0.99999969285
0.999999790213
0.999999920758
1.00000006884
1.00000021089
1.00000032381
1.00000029093
0.999999778678
0.999999802076
0.999999833768
0.99999985012
0.999999845501
0.999999830257
0.999999814538
0.999999801975
0.99999979128
0.999999779721
0.999999765425
0.999999747948
0.999999727782
0.999999705683
0.999999682298
0.999999658153
0.999999633785
0.999999609854
0.999999587139
0.999999566484
0.999999548651
0.99999953446
0.999999524567
0.999999519493
0.99999951962
0.999999525092
0.999999536475
0.99999955439
0.999999578026
0.99999960621
0.99999963797
0.999999674288
0.999999719573
0.999999781466
0.999999866899
0.999999975898
1.00000009454
1.00000020634
1.00000028131
1.00000021536
0.999999427453
0.999999406916
0.999999458347
0.999999502028
0.999999513879
0.999999506223
0.999999494645
0.999999486323
0.999999481881
0.999999479511
0.999999477571
0.999999475434
0.999999473279
0.999999471553
0.999999470549
0.999999470283
0.999999470662
0.99999947151
0.999999472633
0.999999473979
0.999999475494
0.999999477157
0.999999478965
0.99999948088
0.999999482852
0.999999484839
0.9999994868
0.999999488704
0.999999490595
0.999999492742
0.999999495797
0.999999500689
0.999999508026
0.99999951708
0.999999525243
0.999999529287
0.999999528737
0.999999527393
0.999999527045
0.999999639122
0.9999994051
0.999999441679
0.999999511401
0.999999555665
0.999999566221
0.999999558999
0.999999548796
0.999999541836
0.99999953834
0.999999536497
0.999999534821
0.999999532858
0.9999995309
0.999999529427
0.999999528714
0.999999528758
0.999999529396
0.999999530442
0.999999531763
0.999999533288
0.999999534983
0.99999953682
0.999999538766
0.999999540774
0.999999542787
0.999999544749
0.999999546594
0.999999548267
0.99999954981
0.999999551552
0.99999955428
0.999999559091
0.999999566608
0.999999575737
0.999999583046
0.999999584435
0.999999579128
0.999999570176
0.999999556147
0.999999647527
0.999999453307
0.999999507948
0.999999586154
0.999999633781
0.999999646992
0.999999642278
0.999999634027
0.999999628344
0.999999625646
0.999999624348
0.999999623108
0.999999621538
0.999999619962
0.999999618862
0.999999618503
0.999999618868
0.999999619782
0.999999621057
0.999999622564
0.999999624239
0.999999626049
0.999999627963
0.999999629942
0.999999631933
0.99999963388
0.999999635718
0.999999637368
0.99999963874
0.999999639833
0.999999640964
0.99999964299
0.99999964717
0.999999654242
0.999999662879
0.999999668789
0.999999666535
0.999999654164
0.9999996339
0.999999604098
0.999999672443
0.999999493038
0.999999548227
0.999999630051
0.99999968178
0.999999698483
0.999999696172
0.999999689272
0.999999684279
0.999999682001
0.999999681072
0.999999680207
0.999999679017
0.999999677826
0.999999677116
0.999999677147
0.999999677882
0.999999679128
0.999999680688
0.999999682429
0.999999684288
0.999999686232
0.999999688232
0.999999690245
0.999999692221
0.999999694106
0.999999695841
0.999999697331
0.999999698446
0.999999699119
0.999999699626
0.999999700897
0.999999704413
0.999999711146
0.999999719654
0.999999724828
0.999999719799
0.999999701495
0.999999672543
0.999999633519
0.999999689398
0.999999501172
0.999999555498
0.999999640594
0.999999696204
0.999999715731
0.99999971495
0.999999708643
0.999999703841
0.999999701717
0.999999701021
0.999999700454
0.9999996996
0.999999698766
0.999999698436
0.999999698867
0.999999699974
0.999999701554
0.999999703392
0.999999705346
0.999999707362
0.99999970941
0.999999711457
0.999999713467
0.999999715397
0.999999717205
0.99999971884
0.999999720202
0.999999721108
0.999999721405
0.999999721298
0.999999721766
0.99999972454
0.999999730954
0.999999739669
0.999999745052
0.999999739111
0.999999717876
0.999999684438
0.999999641439
0.999999693563
0.999999491425
0.999999546915
0.999999635398
0.999999694033
0.999999715321
0.999999715128
0.999999708849
0.99999970397
0.999999701888
0.999999701372
0.999999701067
0.999999700513
0.999999700017
0.999999700053
0.999999700844
0.999999702298
0.999999704169
0.999999706231
0.999999708349
0.999999710464
0.999999712554
0.999999714594
0.999999716554
0.999999718397
0.999999720101
0.999999721632
0.999999722891
0.999999723648
0.999999723651
0.999999722991
0.99999972265
0.999999724574
0.999999730485
0.999999739374
0.999999745483
0.999999740171
0.99999971874
0.99999968419
0.999999640248
0.999999692731
0.999999480343
0.999999538205
0.999999629541
0.99999969014
0.999999712202
0.999999711984
0.999999705435
0.999999700389
0.999999698333
0.999999697977
0.999999697934
0.999999697691
0.999999697542
0.999999697977
0.999999699144
0.99999970093
0.999999703071
0.999999705331
0.999999707577
0.999999709759
0.999999711861
0.999999713868
0.99999971575
0.999999717484
0.999999719069
0.999999720498
0.999999721683
0.999999722364
0.999999722184
0.999999721102
0.999999719983
0.999999720982
0.999999726204
0.999999734987
0.99999974181
0.999999737741
0.999999717518
0.999999683736
0.999999640398
0.999999693644
0.999999475387
0.999999535692
0.999999629043
0.999999690744
0.99999971297
0.999999712415
0.999999705494
0.999999700278
0.999999698258
0.999999698137
0.999999698421
0.999999698523
0.999999698757
0.999999699564
0.999999701105
0.999999703221
0.999999705622
0.999999708063
0.999999710419
0.999999712649
0.999999714746
0.999999716702
0.999999718494
0.99999972011
0.999999721567
0.999999722892
0.999999724023
0.999999724687
0.999999724443
0.999999723097
0.999999721434
0.999999721561
0.999999725859
0.999999734219
0.999999741418
0.99999973852
0.999999719827
0.999999687423
0.999999645233
0.999999698146
0.99999947666
0.999999538849
0.999999633495
0.999999695777
0.999999717892
0.999999716892
0.999999709586
0.999999704224
0.999999702322
0.999999702447
0.999999703031
0.999999703514
0.999999704155
0.999999705371
0.999999707289
0.999999709721
0.999999712358
0.999999714957
0.999999717395
0.999999719645
0.999999721712
0.999999723594
0.999999725277
0.999999726757
0.99999972807
0.999999729275
0.999999730342
0.999999731003
0.999999730759
0.999999729278
0.999999727193
0.999999726566
0.999999729972
0.999999737694
0.99999974492
0.999999742837
0.999999725445
0.999999694324