/*--------------------------------*- C++ -*----------------------------------*\
| =========                 |                                                 |
| \\      /  F ield         | foam-extend: Open Source CFD                    |
|  \\    /   O peration     | Version:     4.1                                |
|   \\  /    A nd           | Web:         http://www.foam-extend.org         |
|    \\/     M anipulation  |                                                 |
\*---------------------------------------------------------------------------*/
FoamFile
{
    version     2.0;
    format      ascii;
    class       volScalarField;
    location    "0.1";
    object      epsilon;
}
// * * * * * * * * * * * * * * * * * * * * * * * * * * * * * * * * * * * * * //

dimensions      [0 2 -3 0 0 0 0];

internalField   nonuniform List<scalar> 
96000
(
0.329805878808
0.327586099021
0.327835195006
0.327924182401
0.32794031901
0.327942604094
0.327942654384
0.327942311526
0.32794184658
0.327941301315
0.327940684505
0.327939999783
0.327939249765
0.327938436879
0.327937563686
0.327936633092
0.327935648425
0.327934613582
0.327933533121
0.327932412244
0.327931257004
0.327930074169
0.327928870988
0.327927655586
0.327926436456
0.327925222673
0.32792402354
0.327922848375
0.327921706216
0.327920605394
0.327919552876
0.327918552868
0.327917601685
0.32791665794
0.327915440784
0.327912073141
0.327894799445
0.327804223639
0.327553431661
0.329804665022
0.327587377368
0.379929753908
0.385505396679
0.387289806007
0.387584367417
0.3876270048
0.387632957521
0.387633869335
0.38763410532
0.38763424964
0.387634377897
0.387634498717
0.387634612741
0.387634720454
0.387634823008
0.387634922037
0.387635019333
0.387635116607
0.387635215254
0.387635316191
0.387635419729
0.387635525546
0.387635632725
0.387635739714
0.387635844451
0.387635944453
0.387636037003
0.387636119369
0.387636189024
0.38763624375
0.387636280787
0.387636289041
0.38763618955
0.387635389105
0.387629478865
0.387586591609
0.387290548619
0.38550180081
0.379936787379
0.327594118351
0.32783640355
0.38550489905
0.397354093915
0.401063921841
0.401780307656
0.401901132194
0.401920130756
0.401922920749
0.401923202531
0.401923067912
0.401922825142
0.401922518021
0.40192215336
0.401921734224
0.401921264416
0.401920748687
0.401920192441
0.401919601319
0.401918980904
0.4019183365
0.401917672976
0.401916994687
0.401916305448
0.401915608524
0.401914906733
0.40191420256
0.401913498347
0.401912796537
0.401912099847
0.401911410855
0.401910727346
0.401910008741
0.401908946974
0.401905436321
0.401885692488
0.401763717281
0.401044494206
0.39732914051
0.385499119068
0.327841781185
0.327925353601
0.387289089959
0.401063629411
0.405555365569
0.40648501569
0.406653016113
0.406681151552
0.406685462253
0.406685851745
0.406685562705
0.4066851031
0.406684549652
0.406683914612
0.40668320243
0.406682417979
0.406681567316
0.406680657409
0.406679695699
0.406678689774
0.406677647118
0.406676574943
0.406675480084
0.406674368947
0.406673247526
0.406672121464
0.406670996187
0.406669877102
0.406668769841
0.406667680384
0.406666614101
0.406665567366
0.406664470567
0.406662819012
0.406657355557
0.406628078662
0.406458525227
0.405525633823
0.401028728546
0.387278624708
0.327930189461
0.327941475587
0.387583585368
0.401779914027
0.406484907983
0.407482605416
0.407667657865
0.407699463435
0.407704450134
0.407704908181
0.40770457009
0.407704036474
0.407703400368
0.407702676707
0.407701870439
0.407700986717
0.407700031974
0.40769901364
0.407697939717
0.407696818424
0.407695657939
0.407694466215
0.407693250862
0.407692019094
0.407690777736
0.407689533288
0.407688292067
0.407687060421
0.40768584499
0.40768465282
0.40768349011
0.407682351895
0.407681153572
0.407679298724
0.407673039198
0.407639977995
0.40745323816
0.406452120555
0.401741984794
0.387572230896
0.327946300804
0.327943751226
0.387626188006
0.401900682916
0.406652847086
0.407667595605
0.407857358044
0.407890256481
0.407895450628
0.40789592276
0.407895559617
0.407894993098
0.407894322072
0.407893562481
0.407892719489
0.407891798401
0.407890805855
0.40788974953
0.407888637698
0.407887478887
0.407886281589
0.407885054066
0.407883804232
0.407882539585
0.407881267215
0.407879993867
0.407878726092
0.407877470477
0.407876233924
0.407875023782
0.407873846474
0.407872696409
0.407871483512
0.40786958008
0.407863081663
0.407828889316
0.407637360611
0.406618992762
0.401861393582
0.387614701795
0.327948780753
0.327943792561
0.38763210637
0.401919624718
0.406680918544
0.407699335628
0.407890190697
0.40792334868
0.407928581219
0.407929039734
0.40792865157
0.407928057444
0.407927358022
0.407926569671
0.407925697776
0.407924747877
0.407923726893
0.407922642784
0.407921504146
0.407920319819
0.407919098602
0.407917849038
0.407916579289
0.407915297062
0.407914009616
0.407912723819
0.407911446298
0.407910183687
0.407908942919
0.407907731352
0.407906555397
0.407905409281
0.407904201242
0.407902294365
0.407895741214
0.407861262513
0.407668562868
0.406646286115
0.401879116113
0.387620577098
0.327949154651
0.327943439095
0.387632978997
0.40192234756
0.406685152473
0.407704243332
0.407895305525
0.407928501915
0.407933723247
0.407934157087
0.40793374029
0.40793311594
0.407932385398
0.407931565392
0.407930661639
0.407929680051
0.407928627929
0.407927513641
0.407926346208
0.407925134881
0.407923888838
0.407922616969
0.407921327733
0.407920029062
0.40791872837
0.407917432606
0.407916148407
0.407914882352
0.407913641274
0.407912432403
0.40791126202
0.40791012415
0.407908926413
0.407907029135
0.40790047269
0.407865929272
0.407672936963
0.406649708418
0.401880492993
0.387621437824
0.327949235301
0.327942959955
0.38763317149
0.401922552049
0.40668545261
0.407704609243
0.407895685195
0.407928868088
0.407934064842
0.407934469373
0.407934020734
0.407933362883
0.407932597706
0.407931742397
0.407930803161
0.407929786415
0.407928699974
0.407927552774
0.407926354379
0.407925114559
0.407923842981
0.407922548953
0.407921241285
0.407919928167
0.407918617152
0.407917315226
0.407916028958
0.407914764761
0.407913529217
0.407912329251
0.407911170815
0.407910047574
0.407908866654
0.407906987086
0.407900444199
0.40786588995
0.407672791717
0.406649180712
0.401879242842
0.387621690343
0.327949284744
0.327942394977
0.387633270048
0.401922332425
0.406685064054
0.407704168372
0.407895219011
0.407928377161
0.407933545563
0.407933918441
0.407933435615
0.407932741734
0.407931939326
0.407931046207
0.407930069228
0.407929015458
0.407927893428
0.407926712774
0.407925483745
0.407924216768
0.407922922106
0.407921609584
0.407920288389
0.40791896699
0.407917653066
0.40791635357
0.407915074878
0.407913823061
0.407912604242
0.407911424799
0.407910290082
0.407909193138
0.407908040398
0.407906189701
0.407899672449
0.407865124557
0.407671954741
0.406648037373
0.401877535772
0.387621978974
0.327949341405
0.327941751006
0.387633352478
0.401921999251
0.406684497018
0.407703523592
0.407894541178
0.407927672223
0.407932810963
0.407933150822
0.407932632271
0.407931900802
0.407931059752
0.407930127741
0.407929112445
0.407928021811
0.407926865245
0.40792565327
0.407924396992
0.407923107659
0.407921796235
0.407920473152
0.407919148069
0.407917829716
0.407916525836
0.407915243236
0.407913987922
0.407912765396
0.407911581034
0.407910440343
0.407909347711
0.407908295206
0.40790718823
0.407905383122
0.407898907013
0.407864378665
0.4076711429
0.406646899344
0.401875776964
0.387622447923
0.327949413439
0.327941029789
0.387633429279
0.401921597997
0.406683829648
0.407702769331
0.407893752014
0.407926855494
0.407931964079
0.407932270219
0.407931715231
0.407930945637
0.407930065779
0.407929095321
0.407928042995
0.407926917824
0.407925730321
0.407924492117
0.407923215382
0.407921912342
0.407920594862
0.407919274081
0.407917960172
0.407916662123
0.407915387663
0.407914143274
0.407912934365
0.40791176555
0.407910641081
0.40790956515
0.407908540728
0.40790755842
0.407906522139
0.40790478626
0.407898372881
0.407863881193
0.407670582771
0.406645974201
0.401874123858
0.387623184962
0.327949505375
0.327940232056
0.38763350254
0.401921136491
0.406683074887
0.407701921177
0.407892868196
0.407925944214
0.407931022676
0.407931295086
0.407930703816
0.407929896643
0.407928979203
0.407927972434
0.407926886374
0.407925731398
0.407924519406
0.40792326337
0.407921976799
0.407920673151
0.40791936536
0.407918065423
0.407916784058
0.407915530508
0.407914312374
0.407913135614
0.407912004705
0.407910922959
0.407909892995
0.407908917124
0.407907996282
0.407907118997
0.407906187092
0.40790455237
0.407898230959
0.407863799517
0.407670445243
0.406645427946
0.401872718012
0.38762428335
0.327949621721
0.327939358347
0.387633573948
0.401920618457
0.406682237491
0.407700984364
0.407891895288
0.407924944352
0.407929993285
0.407930232695
0.407929606255
0.40792876331
0.407927811047
0.407926771968
0.407925657732
0.407924480401
0.40792325355
0.407921991876
0.40792071053
0.407919424493
0.407918147983
0.407916894017
0.407915673983
0.407914497328
0.407913371378
0.407912301285
0.407911290175
0.407910339511
0.407909449629
0.407908620217
0.407907849388
0.407907122794
0.407906339396
0.407904847663
0.407898656635
0.407864317085
0.407670919232
0.406645447205
0.401871723439
0.387625852151
0.327949767448
0.327938409339
0.387633645813
0.401920048331
0.406681322629
0.407699964349
0.407890839067
0.407923862142
0.407928882748
0.407929090738
0.407928431369
0.407927555843
0.407926573221
0.40792550793
0.40792437363
0.407923184419
0.407921956014
0.40792070523
0.407919449253
0.40791820491
0.407916988051
0.407915812925
0.407914691678
0.407913633936
0.407912646555
0.407911733516
0.407910896076
0.407910133157
0.407909441964
0.407908818624
0.407908257416
0.407907740093
0.407907161777
0.407905866656
0.407899855358
0.407865649007
0.407672226686
0.406646252245
0.401871335424
0.387628019149
0.327949948019
0.327937386022
0.387633721012
0.40191943171
0.406680336918
0.407698868148
0.407889706913
0.407922705491
0.407927699717
0.407927878841
0.407927190001
0.40792628661
0.407925279999
0.407924196931
0.407923053483
0.407921866325
0.407920653799
0.407919435321
0.4079182306
0.407917058803
0.407915937761
0.407914883234
0.407913908268
0.407913022631
0.407912232469
0.407911540163
0.407910944436
0.407910440798
0.407910022274
0.407909680218
0.407909403789
0.407909169544
0.40790886753
0.407907836475
0.407902067087
0.407868046617
0.407674627187
0.406648101401
0.401871784274
0.387630932217
0.327950169296
0.327936289907
0.387633802752
0.4019187751
0.406679288203
0.407697704142
0.407888507677
0.407921483849
0.40792645446
0.407926608318
0.407925894797
0.407924969936
0.407923947779
0.407922857896
0.407921719365
0.407920551999
0.407919377329
0.40791821803
0.407917096947
0.407916036132
0.407915055883
0.407914173831
0.40791340407
0.407912756517
0.40791223636
0.407911843828
0.407911574289
0.407911418749
0.407911364732
0.407911397317
0.407911498931
0.40791163931
0.407911701874
0.407911018446
0.40790556802
0.407871799287
0.407678419758
0.40665129296
0.401873337234
0.387634759582
0.327950437377
0.327935123193
0.387633894261
0.401918085518
0.40667818515
0.407696481663
0.407887251219
0.407920207733
0.407925158363
0.407925291675
0.407924559691
0.407923621542
0.407922594484
0.407921511516
0.40792039535
0.407919269584
0.407918159739
0.407917092478
0.407916094529
0.40791519153
0.407914406831
0.407913760369
0.407913267602
0.407912938565
0.407912777173
0.407912780862
0.407912940653
0.407913241721
0.407913664455
0.407914185799
0.407914779455
0.407915406318
0.407915941268
0.407915707445
0.407910670053
0.407877234012
0.407683942647
0.406656165022
0.401876298566
0.387639688993
0.327950758344
0.327933888913
0.387633998487
0.40191737013
0.406677036843
0.407695210565
0.407885947966
0.407918888265
0.407923823449
0.407923942108
0.407923199363
0.407922257951
0.407921238978
0.40792017954
0.407919106701
0.407918048719
0.407917035957
0.407916099981
0.407915272316
0.407914582999
0.407914059216
0.407913723814
0.407913593922
0.407913679726
0.40791398353
0.407914499225
0.407915212302
0.407916100496
0.407917135082
0.407918282597
0.407919505573
0.407920753593
0.407921890652
0.407922229062
0.407917717824
0.407884712337
0.407691570175
0.406663092649
0.401881007272
0.387645925546
0.327951137948
0.327932591114
0.387634117842
0.401916635899
0.406675852422
0.407693900858
0.407884608528
0.407917536759
0.407922461954
0.407922573034
0.407921828709
0.407920895959
0.407919900415
0.407918884033
0.407917879125
0.407916919572
0.407916041611
0.407915282808
0.407914680516
0.407914270282
0.407914084032
0.40791414824
0.407914482154
0.407915096195
0.407915990692
0.407917155131
0.40791856808
0.407920197923
0.407922004446
0.407923941041
0.407925956117
0.407927984949
0.407929877798
0.407930933565
0.407927082259
0.407894623426
0.407701705284
0.406672480093
0.401887830205
0.38765368683
0.327951581185
0.327931234893
0.387634253993
0.401915889342
0.406674640858
0.407692562413
0.407883243392
0.407916164412
0.407921085959
0.407921197662
0.40792046241
0.407919552078
0.407918597602
0.407917646668
0.407916737865
0.407915911796
0.40791521179
0.407914682641
0.407914368883
0.407914312789
0.407914552143
0.40791511795
0.40791603216
0.40791730558
0.407918936196
0.407920908121
0.407923191405
0.407925742803
0.407928507825
0.407931423459
0.407934420406
0.407937415989
0.407940243161
0.40794218425
0.407939147677
0.407907369922
0.407714763495
0.406684742596
0.401897145285
0.387663196228
0.327952092202
0.327929826781
0.387634407657
0.401915136335
0.406673410733
0.407691204822
0.407881862722
0.407914782017
0.407919707081
0.407919828684
0.407919114502
0.407918242046
0.407917348384
0.40791648797
0.407915706778
0.407915053398
0.407914579618
0.407914338946
0.407914384603
0.407914767043
0.407915531251
0.407916713859
0.407918340258
0.407920421893
0.407922954048
0.407925914416
0.407929262641
0.407932941302
0.40793687823
0.407940989996
0.407945184917
0.407949358542
0.407953321102
0.407956341788
0.407954374102
0.407923571346
0.407731535568
0.406700806827
0.401909902323
0.387675099403
0.327952695407
0.32792837447
0.387634578565
0.401914382024
0.406672170126
0.407689837196
0.40788047618
0.407913399798
0.407918336264
0.40791847796
0.407917797999
0.407916980317
0.407916169066
0.40791542654
0.40791480735
0.407914369487
0.407914174716
0.407914286972
0.407914769851
0.407915683684
0.407917082223
0.407919009048
0.407921493902
0.407924549238
0.407928167319
0.407932318217
0.407936949099
0.407941985122
0.407947331797
0.407952880456
0.407958513548
0.407964224051
0.407969781377
0.407975434661
0.407982490522
0.407963364613
0.407782933168
0.406760774102
0.401969196337
0.387718358508
0.327954145543
0.327926886705
0.387634765471
0.401913630787
0.406670926566
0.407688468127
0.407879092845
0.407912027288
0.407916983598
0.407917156281
0.407916524586
0.407915779685
0.407915073831
0.407914478319
0.407914057734
0.407913880982
0.407914021568
0.407914555651
0.407915559127
0.407917104123
0.40791925495
0.407922063668
0.407925565484
0.407929774356
0.407934679219
0.407940241124
0.407946391784
0.407953034
0.407960051385
0.407967489144
0.407975763507
0.407995057119
0.408018978314
0.408041914015
0.408058766017
0.408045489818
0.407868982274
0.406848185539
0.402052054699
0.387789598579
0.327958129071
0.32792537382
0.387634966073
0.401912886225
0.406669687061
0.407687105702
0.407877721198
0.40791067327
0.407915658228
0.407915873224
0.407915304355
0.407914650902
0.40791407423
0.407913655857
0.407913471762
0.407913603389
0.407914137813
0.407915165399
0.407916776433
0.407919056943
0.407922083807
0.407925919302
0.407930605393
0.407936158149
0.407942562624
0.407949768133
0.407957686502
0.407966311908
0.407976747325
0.408003167107
0.40803544705
0.408067696913
0.408098823923
0.40812772598
0.408150087249
0.408141838625
0.407969487318
0.4069503479
0.402149263036
0.387872751361
0.327962793033
0.327923847043
0.387635177168
0.401912151276
0.40666845818
0.407685757582
0.407876369203
0.407909345843
0.407914368364
0.407914637108
0.40791414572
0.407913602459
0.407913178826
0.40791296779
0.407913058173
0.407913545644
0.407914532727
0.407916126074
0.407918432569
0.407921554393
0.407925583155
0.407930593261
0.407936634837
0.407943726451
0.407951846881
0.407960929592
0.407971207887
0.407993981688
0.408032183809
0.408072375027
0.408112655183
0.408152275332
0.40819050956
0.408226182856
0.408254886247
0.408252435198
0.408084894719
0.407067780922
0.402261267985
0.387967950597
0.327968101088
0.327922318855
0.387635394746
0.401911428366
0.406667246211
0.407684431165
0.407875044453
0.40790805256
0.407913121389
0.407913455048
0.407913055395
0.407912640488
0.407912392963
0.407912418437
0.407912819998
0.407913709214
0.407915205934
0.407917435192
0.407920522725
0.407924589182
0.407929743156
0.40793607316
0.407943638675
0.407952459093
0.407962507316
0.407974218109
0.408008914256
0.408054525643
0.408102240433
0.408150900975
0.408199674503
0.408247675142
0.408293992686
0.408337319153
0.408373156687
0.40837720801
0.408215066799
0.407200286811
0.402387816785
0.388074853046
0.327974024373
0.327920802447
0.387635614226
0.401910719637
0.406666057379
0.407683133816
0.407873754415
0.40790680065
0.407911924084
0.407912333159
0.407912038551
0.407911768861
0.407911718786
0.4079120077
0.407912754297
0.407914087612
0.407916146616
0.407919076749
0.407923024783
0.407928132116
0.407934526539
0.407942312426
0.407951558046
0.407962285118
0.40797567567
0.408016421355
0.40806801658
0.408122782468
0.408179703769
0.408237838856
0.408296107429
0.408353409534
0.408408662293
0.408460427522
0.408504118277
0.40851532088
0.408359129791
0.407346990789
0.4025280937
0.388192677143
0.327980503307
0.327919311429
0.387635830708
0.401910027092
0.406664897942
0.407681872929
0.407872506485
0.40790559707
0.407910782689
0.407911276614
0.407911098866
0.407910989224
0.407911155234
0.407911731006
0.407912852012
0.407914666138
0.407917333095
0.407921020554
0.407925898328
0.40793213066
0.407939866479
0.407949226545
0.407960286295
0.40797355967
0.408015294702
0.408071556669
0.408132382403
0.408196807386
0.408263859956
0.408332330128
0.408400908042
0.408468288924
0.408533211751
0.408594099635
0.408646270773
0.408665190597
0.408515431655
0.407506212325
0.402680518227
0.388320316713
0.327987477316
0.327917859295
0.387636039111
0.401909352169
0.406663773217
0.407680654682
0.407871306647
0.407904447163
0.407909701549
0.407910288312
0.407910237219
0.407910299716
0.407910696812
0.407911578119
0.407913096822
0.407915420774
0.407918731748
0.40792322116
0.407929083545
0.407936507718
0.407945664874
0.407956691552
0.407969964803
0.408005720588
0.40806486372
0.408130254939
0.408200795881
0.408275610797
0.408353467404
0.408432925153
0.408512451738
0.408590529128
0.408665706789
0.408736259313
0.408797403446
0.408824478847
0.408681517109
0.407675411838
0.402842565668
0.388455392285
0.327994803562
0.32791645864
0.387636233413
0.401908691163
0.40666267919
0.40767947369
0.407870148407
0.407903343381
0.407908671804
0.407909357588
0.407909440459
0.407909683824
0.40791032254
0.407911522225
0.407913454399
0.407916307643
0.407920286714
0.407925607854
0.407932491529
0.4079411522
0.40795178304
0.407964621348
0.407989417669
0.408048503239
0.408116580262
0.408191325001
0.408272083162
0.408357736366
0.408446835636
0.408537719919
0.408628628425
0.408717819897
0.408803644109
0.408884218268
0.408954650812
0.408990150475
0.40885419692
0.407851307523
0.40301106931
0.388595362419
0.328002341926
0.327915119544
0.3876363989
0.401908001657
0.406661545475
0.407678244467
0.407868940155
0.407902191466
0.407907597192
0.407908385933
0.407908607128
0.407909036156
0.407909921834
0.40791144596
0.407913798647
0.407917189533
0.407921846793
0.407928012051
0.407935932268
0.407945847496
0.40795797127
0.407972971813
0.408023819022
0.408092414743
0.408169121331
0.408253493217
0.408344678435
0.408441364606
0.408541903135
0.408644412001
0.408746896561
0.408847385681
0.408944022452
0.40903475981
0.409114591665
0.409158592155
0.409029690065
0.408030028173
0.40318229707
0.388737178755
0.328009925101
0.327913844147
0.387636452554
0.401906972818
0.406659865449
0.407676368363
0.407867051012
0.407900350126
0.407905832133
0.407906724362
0.407907084338
0.407907698865
0.40790883047
0.407910676931
0.407913446815
0.407917370629
0.407922699844
0.407929701348
0.407938648414
0.407949806021
0.407963539092
0.407993101414
0.408059046859
0.40813539249
0.408220780201
0.408314769733
0.40841633615
0.408524000586
0.408635921141
0.408749995271
0.408863993457
0.408975712554
0.409083085477
0.409183895352
0.409273015145
0.409325382656
0.409203398647
0.408206921324
0.403351879273
0.388877434203
0.328017368695
0.327912596331
0.387635795418
0.40190349201
0.406654374575
0.407670088729
0.407860566417
0.407893859663
0.407899402194
0.407900390321
0.407900881767
0.40790167257
0.407903038064
0.407905191305
0.407908358622
0.407912790739
0.407918761626
0.407926562641
0.407936492122
0.407948837237
0.407964280899
0.408015002929
0.408088663527
0.408172499174
0.40826638473
0.40836973562
0.408481395392
0.408599732695
0.408722718996
0.408848035905
0.408973222757
0.409095847049
0.409213631135
0.409324184194
0.409422254111
0.409482660429
0.40936739227
0.408374405512
0.403513530742
0.389012230012
0.328024457768
0.327911098875
0.387630003544
0.401883747773
0.406625038267
0.407636971357
0.407826345741
0.407859393776
0.407864926108
0.407865974697
0.407866565212
0.407867495068
0.407869049836
0.407871456274
0.407874956937
0.407879821192
0.40788634377
0.407894838627
0.407905626955
0.407919067033
0.407941906783
0.408007993019
0.408087929165
0.408178866035
0.408280765374
0.408392928308
0.408514088527
0.408642473881
0.408775880395
0.408911783622
0.409047501909
0.409180381956
0.409307939732
0.409427611705
0.409534038035
0.409602045982
0.409493767556
0.408506985065
0.403648592045
0.38913393493
0.328030747026
0.327907473525
0.387587148007
0.401761631137
0.406455263173
0.407449996265
0.407634589089
0.40766648205
0.407671745859
0.407672723619
0.407673292288
0.407674224959
0.407675809998
0.40767828373
0.407681901102
0.407686946087
0.407693730029
0.40770258491
0.407713850198
0.407728058162
0.407764445668
0.407837459548
0.407922667539
0.408019715686
0.40812849699
0.408248233928
0.408377572766
0.408514620498
0.408657020899
0.408802064269
0.408946872936
0.409088595824
0.4092245609
0.40935205757
0.409465729012
0.40954097127
0.409442431809
0.408475571594
0.403661036615
0.38920603014
0.328034112967
0.32788994513
0.387290817781
0.401041781235
0.405521620434
0.406448072761
0.40661536377
0.406643287878
0.406647531398
0.406648050569
0.406648230239
0.406648749059
0.406649878373
0.406651852327
0.406654927076
0.406659389291
0.406665554379
0.406673759429
0.406684348399
0.406698026944
0.406746003428
0.40682164224
0.406909475611
0.407009701437
0.407122138745
0.407245961641
0.407379769765
0.40752160083
0.407669006481
0.407819150185
0.407969033252
0.408115677436
0.408256290831
0.40838812071
0.408506197099
0.40858836221
0.408510231622
0.407616406686
0.403023170299
0.38899752438
0.32802205912
0.327799062748
0.385501193371
0.397325150837
0.401023401606
0.401736549821
0.401856234211
0.401874394432
0.401876355537
0.401875868895
0.401875150145
0.401874656396
0.401874602829
0.40187519327
0.401876655772
0.401879247542
0.401883253095
0.401888978028
0.401896734863
0.401907289211
0.401957347406
0.402029416366
0.402113375414
0.402209463795
0.402317462402
0.402436548877
0.402565361499
0.402702016834
0.402844124102
0.40298889103
0.403133407852
0.403274765951
0.40341025199
0.403537335148
0.403652257661
0.40373955134
0.403707555448
0.403036250333
0.399259185053
0.387232463575
0.327933248855
0.327548050835
0.379939673962
0.385499980559
0.387278927429
0.387572710469
0.387615600079
0.387622039288
0.387623614332
0.38762475657
0.387626141242
0.387627947303
0.387630300761
0.387633335511
0.387637201722
0.387642066023
0.387648108995
0.387655520414
0.387664492624
0.387675549313
0.387713267113
0.387776938406
0.38785073365
0.387934622143
0.388028340792
0.388131130442
0.388241735209
0.388358742894
0.388479995997
0.388603141873
0.388725791026
0.388845529807
0.388960130915
0.389067686482
0.389166345703
0.389250993298
0.389288263944
0.389052241083
0.38727305024
0.381684908488
0.327677776696
0.329804410977
0.327594142576
0.327841736026
0.327930120626
0.327946239741
0.32794873875
0.327949138201
0.327949250694
0.327949339053
0.327949442674
0.327949570716
0.327949728685
0.327949921964
0.327950156178
0.32795043707
0.327950770234
0.327951160773
0.327951613071
0.327952144301
0.327953265883
0.327956790806
0.327960901576
0.32796555682
0.327970732899
0.327976381979
0.327982420503
0.327988773059
0.327995312327
0.328001908109
0.328008431507
0.328014754126
0.328020760653
0.328026353656
0.328031432816
0.328035691005
0.328037178827
0.328023658918
0.327934018102
0.327676901337
0.329815158546
0.330929062215
0.341237915662
0.344916419015
0.34567954448
0.345805580382
0.345824722233
0.345828168972
0.345829593954
0.345830904377
0.345832352569
0.345833966977
0.345835746884
0.345837687906
0.345839785032
0.345842032661
0.345844424286
0.345846952198
0.345849607094
0.345852377887
0.345855251572
0.345858212971
0.345861244988
0.345864328416
0.345867442316
0.345870564321
0.345873670563
0.345876736413
0.345879737022
0.3458826481
0.345885446836
0.345888112868
0.345890626877
0.345892947557
0.345894818915
0.345894329748
0.345877717188
0.345753182745
0.344987864157
0.341294855524
0.330932729396
0.341235462238
0.258027940637
0.246378843993
0.244415250425
0.244120802965
0.244081173897
0.244076230427
0.24407574923
0.244075885237
0.244076160246
0.244076511365
0.24407692651
0.244077399741
0.244077925309
0.244078496871
0.244079107599
0.244079750472
0.244080418478
0.244081104893
0.244081803485
0.244082508774
0.244083216119
0.244083921409
0.244084621468
0.244085313784
0.244085996586
0.244086668627
0.244087329068
0.24408797743
0.244088613761
0.244089239747
0.244089865174
0.244090554278
0.244091797367
0.244097501457
0.244138174665
0.244435157427
0.246406117527
0.258073032354
0.3412147707
0.344913231567
0.246379596343
0.227879203499
0.223761111663
0.222944865614
0.222802294771
0.22277994655
0.222777113607
0.222777355156
0.222778171869
0.222779197474
0.222780374208
0.222781686869
0.222783125003
0.222784677657
0.222786332911
0.222788078026
0.222789899827
0.222791785007
0.222793720369
0.222795693057
0.222797690651
0.222799701203
0.22280171338
0.222803716366
0.222805699849
0.222807653907
0.222809568923
0.222811435643
0.222813245993
0.222814998585
0.222816736904
0.222818817755
0.222823749988
0.222848075529
0.222992948369
0.223813286467
0.22793983313
0.246452900045
0.344882612945
0.345676212692
0.244416276265
0.223761459069
0.218699341718
0.217588686919
0.217374411469
0.217337462913
0.217332148499
0.217332192974
0.217333228282
0.217334565525
0.217336094302
0.217337790419
0.217339640914
0.217341633045
0.217343752924
0.21734598558
0.217348315328
0.217350726101
0.217353201715
0.217355726095
0.217358283425
0.217360858243
0.217363435505
0.217366000571
0.21736853915
0.217371037188
0.217373480777
0.217375856276
0.217378151852
0.217380368492
0.217382594983
0.217385502798
0.217393464224
0.217432865073
0.21764987049
0.218764904507
0.223834835822
0.24449841706
0.345642621609
0.34580224079
0.244121931419
0.222945348266
0.217588824947
0.216369940874
0.216125698644
0.21608193874
0.216075326524
0.216075215192
0.216076313806
0.216077758705
0.216079408623
0.216081233911
0.216083220322
0.216085354408
0.216087621552
0.216090005988
0.216092491136
0.216095059954
0.216097695226
0.216100379796
0.216103096742
0.216105829493
0.216108561878
0.216111278122
0.216113962773
0.216116600574
0.216119176342
0.216121675117
0.216124084176
0.216126407474
0.216128761752
0.216131990391
0.216141388457
0.216187724001
0.216434831097
0.217658243302
0.223022567486
0.244207305012
0.345767454922
0.34582139447
0.244082379993
0.222802875147
0.217374648829
0.216125797289
0.215872432057
0.215826436867
0.215819378554
0.215819220644
0.215820354164
0.215821850459
0.215823555712
0.21582543768
0.215827481292
0.215829672558
0.215831996334
0.215834436299
0.215836975329
0.215839595807
0.215842279961
0.215845010114
0.215847768874
0.21585053926
0.21585330476
0.215856049322
0.215858757271
0.215861413159
0.215864001621
0.215866507534
0.215868918228
0.215871239354
0.215873599295
0.215876906243
0.215886776734
0.215935384809
0.216191710783
0.217445345569
0.222881904866
0.244170344893
0.345785494718
0.345824852589
0.244077527763
0.222780646202
0.21733782501
0.216082162228
0.215826561372
0.215779999261
0.215772843884
0.215772703175
0.215773880268
0.215775426832
0.215777184526
0.215779119699
0.215781216475
0.215783460167
0.215785834923
0.215788323752
0.215790908819
0.215793571838
0.215796294412
0.215799058309
0.215801845676
0.215804639177
0.215807422055
0.215810178139
0.215812891748
0.215815547522
0.215818130246
0.215820625006
0.215823019464
0.215825320231
0.215827659902
0.215830966948
0.215840950252
0.215890158032
0.216148827893
0.21740960243
0.222861521386
0.244168555661
0.345787597521
0.34582629016
0.244077155522
0.222777961904
0.217332669788
0.216075710713
0.21581966345
0.215773003988
0.215765861622
0.215765766115
0.215766998908
0.21576860574
0.215770426189
0.215772425411
0.215774586548
0.215776893941
0.215779330795
0.215781879168
0.215784520276
0.215787234935
0.215790003928
0.215792808309
0.215795629623
0.215798450113
0.215801252754
0.215804021286
0.215806740116
0.215809394121
0.215811968466
0.215814448691
0.215816823031
0.215819098921
0.21582141081
0.215824693656
0.215834682275
0.215884022215
0.216143254474
0.21740569379
0.222860975346
0.244171782289
0.34578740939
0.34582761972
0.244077416092
0.222778378501
0.217332904315
0.21607579208
0.215819697895
0.21577305502
0.215765957481
0.215765919917
0.215767217881
0.215768894466
0.2157707876
0.215772861093
0.21577509681
0.215777477841
0.215779986158
0.215782602538
0.21578530698
0.215788079148
0.215790898771
0.215793746011
0.21579660168
0.215799447517
0.215802266266
0.21580504166
0.215807758334
0.21581040163
0.215812957362
0.215815411878
0.215817754315
0.215819993137
0.215822264169
0.215825505341
0.215835461241
0.215884812513
0.216144207447
0.217407202856