/*--------------------------------*- C++ -*----------------------------------*\
| =========                 |                                                 |
| \\      /  F ield         | foam-extend: Open Source CFD                    |
|  \\    /   O peration     | Version:     4.1                                |
|   \\  /    A nd           | Web:         http://www.foam-extend.org         |
|    \\/     M anipulation  |                                                 |
\*---------------------------------------------------------------------------*/
FoamFile
{
    version     2.0;
    format      ascii;
    class       volScalarField;
    location    "0.1";
    object      k;
}
// * * * * * * * * * * * * * * * * * * * * * * * * * * * * * * * * * * * * * //

dimensions      [0 2 -2 0 0 0 0];

internalField   nonuniform List<scalar> 
96000
(
0.0445773685227
0.0443659459366
0.0443941172171
0.0444039600254
0.044405756799
0.0444060130723
0.0444060190474
0.0444059807844
0.0444059288747
0.0444058680702
0.0444057993612
0.0444057231467
0.0444056397099
0.0444055493147
0.0444054522424
0.0444053488131
0.0444052393966
0.0444051244262
0.0444050044094
0.0444048799247
0.0444047516473
0.0444046203335
0.0444044867833
0.0444043519033
0.0444042166334
0.0444040819816
0.0444039489794
0.0444038186583
0.0444036920169
0.0444035699715
0.0444034532798
0.044403342376
0.0444032367742
0.0444031316611
0.0444029951217
0.0444026164662
0.0444006872841
0.0443906502072
0.0443622568721
0.0445772288208
0.044366093261
0.0371977822458
0.0376318444944
0.0377722412529
0.0377964473221
0.0378001092201
0.037800642648
0.0378007275533
0.0378007499564
0.0378007637565
0.0378007762878
0.0378007884873
0.0378008004703
0.0378008122997
0.0378008240768
0.0378008359321
0.0378008480016
0.0378008604094
0.0378008732488
0.0378008865708
0.0378009003721
0.0378009145945
0.0378009291292
0.0378009438114
0.0378009584323
0.0378009727448
0.0378009864796
0.0378009993625
0.0378010111312
0.03780102154
0.0378010302675
0.0378010361457
0.0378010315116
0.0378009615098
0.0378004355288
0.037796751213
0.0377724031362
0.037631594859
0.0371983466906
0.0443668678895
0.0443942550608
0.0376317980208
0.0385371189339
0.0388275570052
0.0388864413244
0.0388968755028
0.0388985941632
0.0388988579193
0.038898886646
0.0388988753151
0.0388988540199
0.0388988273079
0.0388987959547
0.0388987602811
0.0388987206297
0.038898677406
0.0388986310605
0.038898582059
0.0388985308602
0.0388984778994
0.0388984235756
0.0388983682458
0.0388983122233
0.0388982557758
0.0388981991335
0.0388981424967
0.038898086051
0.0388980299832
0.03889797449
0.038897919722
0.0388978652917
0.038897806917
0.0388977144363
0.0388973912597
0.0388956085972
0.0388850678791
0.0388259138855
0.0385349542428
0.0376311812028
0.0443948575765
0.0444040929549
0.0377721739696
0.0388275291798
0.0391813219574
0.0392584982483
0.0392732070708
0.0392757961443
0.0392762124261
0.0392762541932
0.0392762290397
0.0392761875096
0.0392761376892
0.0392760809744
0.0392760178455
0.0392759487546
0.0392758742315
0.0392757948722
0.039275711309
0.0392756241857
0.0392755341392
0.0392754417858
0.0392753477134
0.0392752524771
0.0392751565993
0.0392750605744
0.0392749648776
0.0392748699794
0.0392747763603
0.0392746845112
0.0392745948122
0.0392745066302
0.039274412499
0.0392742620634
0.0392737459497
0.0392710553871
0.0392562014026
0.0391787176435
0.0388244397892
0.0377711046521
0.0444046261645
0.0444058878674
0.0377963737667
0.0388864037604
0.0392584878347
0.0393418497936
0.0393581968159
0.039361156839
0.0393616452986
0.0393616956954
0.0393616663085
0.0393616177222
0.0393615598862
0.0393614945293
0.0393614222014
0.0393613433899
0.0393612586644
0.039361168668
0.039361074088
0.0393609756303
0.0393608739991
0.0393607698831
0.039360663946
0.0393605568217
0.0393604491144
0.0393603414023
0.0393602342481
0.039360128213
0.0393600238737
0.0393599218179
0.0393598224869
0.0393597250468
0.0393596202951
0.0393594479138
0.0393588476896
0.0393557747162
0.0393392692186
0.039255583794
0.0388830224432
0.0377952077841
0.0444064177253
0.0444061429965
0.037800032599
0.038896832925
0.0392731911
0.0393581911702
0.03937501647
0.0393780935585
0.0393786059208
0.0393786588653
0.039378627476
0.0393785759152
0.0393785148416
0.03937844612
0.0393783703331
0.0393782879874
0.0393781996738
0.0393781060599
0.0393780078592
0.0393779058066
0.039377800636
0.0393776930655
0.0393775837872
0.0393774734619
0.039377362719
0.0393772521602
0.0393771423702
0.0393770339326
0.0393769274473
0.0393768235265
0.0393767226213
0.0393766238011
0.0393765171881
0.0393763388742
0.039375711611
0.0393725176804
0.0393555261182
0.0392701843532
0.0388933247949
0.0377988451372
0.0444066956571
0.0444061479201
0.0378005631058
0.0388985466963
0.0392757746383
0.0393611455176
0.0393780878629
0.0393811947504
0.0393817125072
0.0393817648179
0.0393817314035
0.0393816774879
0.0393816139617
0.0393815427475
0.0393814644544
0.0393813796128
0.03938128884
0.0393811928294
0.0393810923238
0.039380988086
0.039380880877
0.0393807714394
0.0393806604871
0.0393805486986
0.0393804367172
0.0393803251542
0.0393802145996
0.0393801056392
0.0393799988737
0.0393798949132
0.0393797942013
0.0393796957696
0.0393795895151
0.0393794104201
0.0393787763302
0.0393755499996
0.0393584337005
0.0392726986215
0.0388949300347
0.0377993629
0.0444067381905
0.0444061084361
0.0378006446982
0.0388988047193
0.039276184329
0.0393616271828
0.0393785934018
0.0393817056856
0.039382223131
0.0393822735272
0.0393822377306
0.0393821812608
0.0393821150954
0.0393820411979
0.0393819602107
0.0393818726987
0.0393817793144
0.039381680788
0.0393815778996
0.0393814714483
0.0393813622281
0.0393812510113
0.0393811385369
0.0393810255018
0.0393809125614
0.0393808003321
0.0393806894027
0.0393805803518
0.039380473768
0.0393803702466
0.0393802702144
0.0393801726741
0.0393800674375
0.0393798891391
0.0393792541912
0.0393760199572
0.0393588713629
0.0392730380676
0.0388950695239
0.0377994333156
0.0444067477786
0.044406054915
0.0378006634315
0.0388988268498
0.0392762184139
0.0393616696357
0.0393786383705
0.0393817500319
0.039382265573
0.0393823135397
0.0393822750564
0.039382215746
0.0393821466428
0.0393820697564
0.0393819857746
0.0393818953089
0.0393817990581
0.0393816978028
0.0393815923712
0.0393814836078
0.0393813723491
0.0393812594032
0.0393811455388
0.0393810314736
0.0393809178733
0.0393808053552
0.0393806944997
0.0393805858677
0.0393804800228
0.0393803775299
0.039380278782
0.0393801827436
0.0393800791675
0.0393799025298
0.0393792686552
0.0393760327053
0.039358872471
0.0392730008388
0.0388949635333
0.0377994455865
0.044406753936
0.044405991891
0.0378006733802
0.0388988082548
0.0392761846791
0.0393616313536
0.0393785980573
0.0393817077199
0.0393822209064
0.0393822662047
0.0393822248218
0.0393821624508
0.0393820901882
0.0393820101019
0.0393819229393
0.0393818293708
0.0393817301592
0.0393816261473
0.0393815182238
0.0393814072907
0.0393812942362
0.0393811799129
0.0393810651208
0.0393809506004
0.0393808370258
0.039380725009
0.0393806151099
0.0393805078567
0.0393804037689
0.0393803033599
0.0393802069662
0.039380113492
0.0393800126199
0.0393798386927
0.0393792070975
0.0393759713161
0.0393588034376
0.0392729023595
0.0388948137705
0.0377994588007
0.0444067610684
0.0444059201384
0.0378006820696
0.0388987792217
0.0392761338538
0.0393615731071
0.0393785368156
0.0393816441709
0.0393821548575
0.0393821973613
0.0393821529469
0.039382087386
0.039382011851
0.0393819284838
0.0393818381067
0.0393817414692
0.0393816394119
0.0393815328564
0.0393814227671
0.0393813101177
0.0393811958575
0.0393810808908
0.0393809660571
0.0393808521175
0.0393807397489
0.0393806295471
0.0393805220359
0.0393804176896
0.0393803169589
0.0393802202763
0.0393801278903
0.039380038615
0.0393799420345
0.0393797723354
0.039379144444
0.0393759100743
0.0393587351765
0.0392728031755
0.038894658902
0.0377994862466
0.0444067701569
0.044405839844
0.037800690604
0.0388987444441
0.0392760741464
0.0393615049652
0.039378465429
0.0393815704102
0.0393820785496
0.0393821182029
0.039382070704
0.0393820019191
0.0393819231134
0.0393818365237
0.0393817430679
0.0393816435916
0.0393815390345
0.0393814304162
0.0393813187948
0.0393812052296
0.0393810907478
0.0393809763144
0.0393808628116
0.0393807510202
0.0393806416122
0.0393805351507
0.0393804321029
0.0393803328608
0.0393802377715
0.0393801471486
0.039380061112
0.0393799783439
0.0393798882906
0.0393797249418
0.0393791026907
0.0393758712442
0.0393586895275
0.0392727229785
0.0388945135304
0.0377995357221
0.0444067817715
0.0444057510789
0.0378006992347
0.0388987047947
0.03927600702
0.0393614287195
0.0393783858323
0.0393814884429
0.0393819940439
0.0393820308568
0.0393819803015
0.0393819083583
0.0393818264103
0.0393817368101
0.039381640593
0.039381538726
0.0393814322718
0.039381322369
0.0393812101934
0.039381096912
0.0393809836446
0.0393808714294
0.0393807611937
0.0393806537366
0.0393805497145
0.0393804496395
0.0393803538917
0.0393802627433
0.0393801763932
0.0393800949852
0.0393800184568
0.0393799453044
0.0393798647844
0.0393797106355
0.0393790966261
0.039375870157
0.0393586820591
0.0392726767591
0.0388943903152
0.0377996153624
0.0444067964824
0.0444056538944
0.0378007081434
0.0388986606658
0.0392759329938
0.0393613449562
0.0393782986546
0.0393813989407
0.0393819020664
0.039381936118
0.0393818826223
0.0393818077007
0.0393817228774
0.0393816306468
0.03938153219
0.0393814286243
0.0393813211617
0.039381211093
0.0393810997385
0.0393809883982
0.0393808783031
0.0393807705781
0.0393806662054
0.0393805659976
0.0393804705812
0.0393803803914
0.0393802956833
0.0393802165603
0.0393801430151
0.0393800749558
0.0393800120686
0.0393799525941
0.0393798855316
0.0393797443008
0.0393791419356
0.0393759231921
0.0393587295915
0.0392726810545
0.038894303727
0.0377997346278
0.0444068149158
0.0444055483599
0.0378007175477
0.0388986124717
0.0392758525597
0.0393612542019
0.0393782044556
0.0393813025072
0.0393818032776
0.0393818347248
0.0393817785061
0.0393817009107
0.0393816136329
0.0393815193405
0.0393814193942
0.0393813150933
0.0393812078394
0.0393810991105
0.0393809904058
0.0393808831865
0.0393807788244
0.0393806785491
0.0393805834047
0.0393804942134
0.039380411554
0.0393803357512
0.0393802668879
0.0393802048369
0.039380149309
0.0393800998939
0.0393800559372
0.0393800153349
0.0393799667444
0.0393798431816
0.0393792568173
0.0393760493828
0.0393588517233
0.0392727552434
0.0388942708903
0.0377999045745
0.0444068377558
0.0444054345816
0.0378007277014
0.038898560706
0.0392757663085
0.0393611570882
0.0393781039027
0.0393811998586
0.0393816984611
0.0393817275481
0.0393816689338
0.0393815891063
0.039381499965
0.0393814043886
0.0393813039541
0.0393812001896
0.0393810947296
0.0393809892817
0.0393808855664
0.0393807852489
0.0393806898719
0.0393806007934
0.0393805191307
0.0393804457111
0.0393803810421
0.0393803252986
0.039380278332
0.0393802397059
0.0393802087562
0.0393801846474
0.0393801662715
0.039380151067
0.0393801272422
0.0393800273048
0.0393794624168
0.0393762708588
0.0393590712715
0.0392729219573
0.0388943119174
0.0378001379733
0.0444068657327
0.0444053127257
0.0378007388768
0.0388985059276
0.0392756749229
0.03936105435
0.0393779977747
0.0393810918281
0.0393815885236
0.0393816155887
0.0393815550252
0.0393814735571
0.039381383329
0.0393812874718
0.0393811878305
0.039381086213
0.0393809845363
0.0393808847949
0.0393807889845
0.0393806990213
0.0393806166614
0.0393805434211
0.039380480502
0.0393804287351
0.0393803885335
0.0393803598716
0.0393803422946
0.0393803349601
0.0393803367114
0.0393803461556
0.0393803615903
0.0393803798548
0.0393803885742
0.0393803196209
0.039379782977
0.0393766130003
0.0393594144224
0.0392732072361
0.0388944500649
0.0378004493289
0.0444068996004
0.0444051830367
0.0378007513403
0.0388984487314
0.0392755791492
0.0393609467973
0.0393778869302
0.0393809793338
0.0393814744607
0.039381499942
0.0393814380031
0.0393813556453
0.0393812653029
0.0393811704141
0.0393810731484
0.0393809756498
0.039380880188
0.0393807891088
0.0393807047478
0.0393806293339
0.0393805648858
0.0393805131149
0.039380475333
0.03938045237
0.0393804445138
0.0393804514801
0.0393804724183
0.0393805059614
0.0393805503157
0.0393806033671
0.0393806626445
0.0393807242133
0.0393807749498
0.0393807459362
0.0393802457779
0.0393771043876
0.0393599106957
0.0392736404974
0.0388947117222
0.0378008548008
0.0444069401056
0.0444050458525
0.0378007653285
0.0388983897208
0.0392754797668
0.0393608352825
0.0393777722745
0.039380863343
0.0393813573201
0.0393813817601
0.0393813191515
0.0393812368186
0.0393811475421
0.0393810551268
0.0393809621301
0.0393808711092
0.0393807847616
0.0393807058643
0.0393806371729
0.0393805812987
0.0393805405902
0.0393805170053
0.0393805119903
0.039380526374
0.0393805602868
0.039380613116
0.0393806835091
0.0393807694308
0.0393808682757
0.0393809770087
0.0393810921772
0.0393812088585
0.0393813129786
0.039381334643
0.0393808808545
0.0393777765053
0.0393605926414
0.0392742542584
0.0388951261849
0.0378013720023
0.0444069879473
0.0444049016244
0.0378007810277
0.0388983294797
0.0392753775601
0.039360720673
0.0393776547302
0.0393807448411
0.0393812381689
0.0393812622145
0.0393811997728
0.0393811185475
0.0393810317253
0.0393809435459
0.0393808570332
0.0393807752424
0.0393807013893
0.0393806387783
0.0393805906744
0.0393805601669
0.0393805500124
0.0393805624751
0.0393805991723
0.0393806609355
0.0393807477019
0.0393808584515
0.0393809912041
0.0393811430863
0.039381310471
0.0393814891624
0.0393816744689
0.0393818602208
0.0393820311492
0.0393821161593
0.0393817203918
0.0393786630857
0.0393614951251
0.0392750833918
0.0388957250039
0.0378020195613
0.0444070437235
0.0444047509187
0.0378007985567
0.0388982685536
0.0392752733014
0.0393606038277
0.0393775352124
0.0393806248061
0.039381118063
0.0393811424609
0.0393810811522
0.0393810022782
0.0393809195012
0.039380837572
0.039380760072
0.039380690651
0.0393806331501
0.0393805915077
0.0393805696156
0.0393805711466
0.0393805993606
0.0393806569045
0.0393807456137
0.0393808663316
0.0393810187655
0.0393812013986
0.0393814114791
0.0393816450938
0.0393818973472
0.0393821625965
0.0393824345985
0.0393827056188
0.0393829588831
0.0393831218448
0.0393827975412
0.0393797988033
0.0393626538296
0.0392761638804
0.0388965415097
0.0378028166228
0.0444071079367
0.0444045944674
0.0378008179481
0.0388982074329
0.0392751677322
0.0393604855849
0.0393774146125
0.0393805041849
0.0393809980215
0.0393810236121
0.0393809645203
0.0393808893908
0.0393808124341
0.0393807390039
0.0393806733367
0.039380619788
0.0393805829434
0.0393805675049
0.0393805781217
0.0393806191754
0.0393806945437
0.0393808073486
0.039380959704
0.039381152482
0.039381385123
0.0393816555161
0.0393819599691
0.0393822932995
0.0393826490419
0.0393830197465
0.0393833972156
0.039383771838
0.0393841248149
0.0393843848933
0.0393841577419
0.0393812452924
0.0393641469168
0.0392776396588
0.038897789229
0.0378038283158
0.0444071841793
0.0444044331288
0.0378008391467
0.0388981465456
0.0392750615539
0.0393603667456
0.0393772937824
0.039380383879
0.0393808790082
0.0393809067114
0.0393808510205
0.0393807811532
0.0393807119527
0.0393806494697
0.0393805987056
0.039380564846
0.039380553353
0.0393805698409
0.0393806198626
0.0393807086545
0.0393808408456
0.0393810201438
0.0393812490162
0.0393815283897
0.039381857403
0.0393822332399
0.0393826510765
0.0393831041633
0.0393835840473
0.0393840810693
0.0393845865332
0.0393851005159
0.0393855969524
0.0393863094692
0.0393869976235
0.039385119359
0.0393690047931
0.0392831315798
0.0389030935254
0.0378077889118
0.0444073778186
0.0444042678682
0.0378008620106
0.0388980862535
0.0392749554227
0.0393602480693
0.0393771735265
0.0393802647319
0.039380761914
0.0393807927095
0.0393807416801
0.0393806786878
0.0393806192979
0.0393805703605
0.0393805377595
0.039380527642
0.0393805465004
0.0393806010178
0.0393806978166
0.0393808431523
0.0393810425581
0.0393813004567
0.0393816197588
0.0393820014821
0.0393824444277
0.0393829449376
0.0393834967636
0.0393840911829
0.0393847197758
0.0393853886048
0.0393863173726
0.0393881679993
0.0393902398105
0.0393921834676
0.0393935440898
0.0393921080792
0.0393763029459
0.0392905211942
0.0389100825149
0.0378137872968
0.0444078662653
0.0444040998411
0.0378008863011
0.0388980268494
0.0392748499499
0.0393601302725
0.0393770545986
0.039380147523
0.0393806475479
0.0393806824508
0.0393806373852
0.0393805829347
0.0393805354755
0.0393805027644
0.0393804916918
0.0393805095078
0.0393805638942
0.0393806627742
0.03938081402
0.0393810250866
0.0393813025816
0.0393816517881
0.0393820761656
0.039382576865
0.0393831522818
0.039383797628
0.0393845048968
0.0393852806413
0.0393864188432
0.0393888655846
0.0393916302862
0.0393943741467
0.03939701698
0.0393994564592
0.0394012770854
0.0394002602585
0.0393847952485
0.0392991302743
0.0389182565747
0.0378207693234
0.0444084362066
0.0444039302917
0.0378009116979
0.0388979685652
0.0392747457068
0.0393600140337
0.0393769377055
0.0393800329692
0.0393805366337
0.0393805766651
0.0393805388702
0.0393804946301
0.0393804612222
0.0393804474169
0.039380461238
0.0393805111852
0.0393806062926
0.0393807559031
0.0393809693284
0.0393812554153
0.0393816220292
0.0393820754729
0.0393826198663
0.0393832565029
0.0393839831083
0.0393847944977
0.0393857193196
0.0393880559085
0.0393913446399
0.0393947608072
0.0393981779628
0.0394015354507
0.0394047710704
0.0394077754608
0.0394101252176
0.0394095906041
0.0393945183963
0.0393089981008
0.0389276486409
0.037828743859
0.0444090829336
0.0444037606079
0.0378009378036
0.0388979115821
0.0392746432347
0.0393599000025
0.0393768235156
0.0393799217329
0.0393804298156
0.0393804759687
0.0393804467109
0.0393804142929
0.0393803969803
0.0393804046621
0.0393804466184
0.0393805327444
0.0393806735886
0.0393808800939
0.0393811632045
0.0393815333562
0.0393819998622
0.0393825702073
0.0393832492516
0.0393840382311
0.039384936877
0.0393861323021
0.0393893538902
0.0393932420539
0.0393972899142
0.039401411159
0.0394055362363
0.0394095912537
0.039413499061
0.0394171397561
0.039420082698
0.0394200871461
0.039405454472
0.0393201011971
0.0389382294407
0.0378376728576
0.0444098020169
0.0444035922545
0.0378009641645
0.038897856046
0.0392745430581
0.0393597888139
0.0393767126732
0.0393798144341
0.0393803276697
0.0393803808741
0.0393803613311
0.039380342226
0.0393803428929
0.0393803744363
0.0393804475088
0.0393805735361
0.0393807647364
0.0393810338258
0.0393813935678
0.0393818561803
0.0393824326087
0.0393831316525
0.0393839588067
0.0393849178824
0.0393863055288
0.0393899976577
0.0393943878347
0.0393990300237
0.0394038458948
0.0394087559551
0.0394136700358
0.0394184968661
0.0394231454356
0.0394274855723
0.0394310794473
0.0394316750031
0.0394175256147
0.0393323624926
0.0389499290415
0.0378474934289
0.0444105865234
0.0444034267402
0.0378009902897
0.0388978020746
0.0392744456824
0.0393596810798
0.0393766057888
0.0393797116403
0.0393802306944
0.0393802917799
0.0393802829913
0.0393802785038
0.0393802987887
0.0393803562498
0.0393804630137
0.039380632156
0.0393808777031
0.0393812143006
0.0393816567013
0.0393822190814
0.0393829141733
0.0393837520867
0.0393847397574
0.0393860526756
0.0393899034909
0.0393946907062
0.0393998453223
0.0394052934192
0.0394109523114
0.0394167204478
0.0394224888602
0.0394281496407
0.0394335975334
0.0394386914932
0.039442986115
0.0394442176634
0.0394305894292
0.0393456372594
0.0389626111407
0.0378581088962
0.044411428803
0.0444032655565
0.0378010156598
0.038897749701
0.0392743514724
0.0393595772324
0.0393765032682
0.0393796136924
0.0393801391352
0.0393802087968
0.0393802116177
0.0393802228042
0.0393802640176
0.0393803490267
0.0393804915122
0.0393807062955
0.0393810093232
0.0393814172995
0.039381947108
0.0393826150247
0.0393834356352
0.0393844203321
0.0393856123929
0.039389084532
0.0393941268293
0.0393996695699
0.039405635034
0.0394119477308
0.0394185034488
0.0394251816088
0.0394318549994
0.0394383984357
0.039444691558
0.0394505817183
0.0394556154521
0.0394575169186
0.0394444375243
0.0393597094709
0.0389760597183
0.0378693142057
0.0444123110039
0.0444031100863
0.037801039642
0.0388976983874
0.039274259749
0.0393594763936
0.0393764040919
0.039379519456
0.0393800517287
0.0393801304931
0.0393801455511
0.0393801731644
0.039380236216
0.0393803498821
0.0393805294504
0.0393807915518
0.0393811541318
0.0393816360435
0.0393822564013
0.0393830336592
0.0393839842278
0.0393851342828
0.0393876576926
0.0393927422962
0.0393985169423
0.0394048410384
0.0394116573048
0.0394188700568
0.0394263570636
0.039433979498
0.0394415914432
0.03944904967
0.0394562179331
0.0394629313067
0.0394687277451
0.039471318897
0.0394588033581
0.0393743056418
0.0389900121135
0.0378809000371
0.0444132164457
0.0444029614139
0.0378010607233
0.0388976436642
0.0392741629602
0.0393593692689
0.039376298232
0.0393794185895
0.0393799579247
0.0393800461019
0.0393800737516
0.0393801181861
0.0393802035172
0.0393803463415
0.0393805635744
0.039380873683
0.039381296647
0.039381853513
0.0393825656695
0.03938345372
0.0393845368179
0.0393860197141
0.0393906441598
0.0393964729543
0.0394029689854
0.0394100958557
0.0394177789922
0.0394259064798
0.0394343394048
0.0394429206654
0.039451485228
0.0394598713076
0.0394679262336
0.0394754722673
0.0394820383124
0.0394853232849
0.0394733732605
0.0393891057157
0.0390041608143
0.0378926156884
0.0444141252239
0.0444028196943
0.0378010708501
0.0388975550815
0.039274010534
0.0393591952953
0.0393761214506
0.0393792456317
0.0393797917687
0.039379889317
0.0393799295326
0.0393799907126
0.0393800981686
0.0393802698969
0.0393805244253
0.0393808820392
0.0393813647398
0.0393819957551
0.0393827987197
0.039383796337
0.0393850263076
0.0393879828873
0.0393936323023
0.0394001063802
0.0394073278973
0.0394152558056
0.0394238010437
0.0394328376295
0.0394422104876
0.039451744289
0.0394612548085
0.0394705615439
0.0394794951185
0.0394878645293
0.0394951891545
0.0394991553047
0.0394877592654
0.0394037204927
0.0390181447794
0.0379041830101
0.044415015658
0.0444026806874
0.0378010145938
0.0388972353128
0.0392734922814
0.0393585933266
0.0393754954051
0.0393786171271
0.0393791681242
0.0393792741141
0.0393793260616
0.0393794029917
0.0393795313172
0.0393797303653
0.0393800202108
0.0393804228973
0.0393809623744
0.0393816639774
0.0393825534645
0.0393836557457
0.0393850885212
0.0393898113395
0.0393960731189
0.0394031743232
0.0394111050815
0.0394198118571
0.0394291943768
0.0394391137311
0.039449399246
0.039459857741
0.0394702861115
0.0394804853496
0.0394902693235
0.0394994334424
0.0395074874603
0.0395121076915
0.0395012535134
0.0394174838331
0.0390314265405
0.0379152813776
0.0444158628431
0.0444025128427
0.0378004998068
0.0388954527594
0.0392707959902
0.0393555145838
0.039372298051
0.0393753909659
0.0393759388465
0.0393760493841
0.0393761096436
0.0393761984795
0.0393763431225
0.0393765640714
0.0393768828016
0.0393773229666
0.0393779103039
0.0393786720818
0.0393796360036
0.0393808374431
0.0393831904558
0.0393889119991
0.0393956943847
0.0394033881443
0.0394119852764
0.0394214225706
0.0394315903569
0.0394423378029
0.0394534796037
0.0394648055274
0.0394760944562
0.0394871295992
0.0394977084307
0.0395076130692
0.0395163461458
0.0395215885259
0.0395113204743
0.0394281052461
0.0390423611911
0.0379252575735
0.0444166157294
0.0444021052077
0.0377968180386
0.0388848980161
0.0392559199912
0.0393389853884
0.0393552831392
0.0393582524384
0.0393587698361
0.0393588714552
0.0393589280152
0.0393590153752
0.039359160782
0.0393593854898
0.0393597120068
0.039360165214
0.0393607722473
0.0393615618784
0.0393625633025
0.0393638297882
0.039367388002
0.0393736113969
0.0393808266209
0.0393890219528
0.0393981824249
0.0394082379969
0.0394190716179
0.0394305223065
0.0394423921929
0.0394544557702
0.0394664761442
0.0394782207682
0.0394894724375
0.0395000028742
0.0395093201399
0.0395151687352
0.0395057829086
0.0394244461173
0.0390427511682
0.0379310036246
0.0444170329399
0.0444001466599
0.0377724419914
0.0388256842148
0.0391783646476
0.0392552231612
0.0392698595733
0.0392724296767
0.0392728420781
0.0392728977598
0.0392729165368
0.0392729640104
0.0392730654313
0.0392732416896
0.039273515293
0.0392739112615
0.0392744569855
0.0392751815702
0.0392761144535
0.0392773254423
0.0392818355529
0.0392882422033
0.0392956543281
0.039304089379
0.0393135261562
0.0393238903747
0.0393350614744
0.0393468728786
0.0393591193812
0.0393715652394
0.0393839643943
0.0393960746411
0.0394076701705
0.0394185226814
0.039428184863
0.039434648439
0.0394271814578
0.0393525010902
0.0389899021221
0.0379137012196
0.0444157102366
0.0443900725262
0.0376315510737
0.038534606297
0.0388239661819
0.03888253543
0.0388928610484
0.0388945047359
0.0388946957199
0.0388946569561
0.0388945941087
0.0388945503796
0.038894545386
0.038894597158
0.0388947256445
0.0388949532117
0.0388953044808
0.0388958057482
0.0388964843074
0.0388974910848
0.0389020350507
0.0389081190379
0.0389151842723
0.0389232482552
0.0389322870653
0.0389422263598
0.0389529497608
0.0389642977768
0.038976069849
0.0389880342153
0.038999952972
0.0390115901988
0.0390227277351
0.0390331603504
0.0390425618918
0.0390495555304
0.0390463181487
0.0389908199703
0.038694554952
0.0377746009699
0.0444058446536
0.0443616502929
0.0371985840481
0.0376312309805
0.0377710983766
0.0377952135225
0.0377988852463
0.0377994500034
0.037799580142
0.037799666952
0.0377997721754
0.0377999120839
0.0378000977409
0.0378003407318
0.0378006539817
0.0378010517848
0.0378015495849
0.0378021635503
0.0378029100604
0.037803841895
0.0378073035207
0.0378126622555
0.0378188553464
0.0378258787203
0.0378337061212
0.0378422684037
0.0378514585413
0.0378611603121
0.0378711885448
0.0378813497137
0.0378914488506
0.0379012904482
0.0379106964237
0.037919516138
0.037927600215
0.037934505258
0.0379373901704
0.0379178774006
0.0377777272641
0.0373422273391
0.0443768216512
0.0445771995637
0.0443668712742
0.0443948516401
0.0444046169487
0.0444064094062
0.044406689727
0.0444067354833
0.0444067490893
0.0444067601546
0.0444067732058
0.0444067893478
0.0444068092701
0.0444068336475
0.0444068631807
0.0444068985788
0.0444069405261
0.0444069896376
0.0444070464428
0.0444071134776
0.0444072639589
0.0444076965214
0.0444081992805
0.0444087668688
0.0444093960804
0.0444100806464
0.0444108100675
0.0444115756964
0.0444123614685
0.0444131519467
0.044413931896
0.0444146862668
0.0444154017501
0.0444160673506
0.0444166720276
0.0444171813864
0.0444173752249
0.0444158816416
0.0444059255985
0.0443767200581
0.0445784919154
0.0446918598502
0.0457262879392
0.0461039868108
0.0461854828712
0.0461995188528
0.0462017391535
0.046202152008
0.0462023221576
0.0462024765013
0.0462026462857
0.0462028352689
0.0462030434902
0.0462032704898
0.0462035157119
0.0462037785176
0.0462040581525
0.0462043537139
0.0462046641098
0.0462049880378
0.0462053239727
0.0462056701304
0.0462060245079
0.0462063848593
0.0462067487315
0.0462071135173
0.0462074764291
0.0462078345936
0.0462081851149
0.046208525165
0.0462088520932
0.0462091635359
0.0462094572125
0.0462097279877
0.0462099442727
0.0462098784021
0.0462079530903
0.0461940828445
0.0461123016721
0.0457328820574
0.0446923081371
0.0457259997643
0.0593096355188
0.0624665771218
0.0631672712619
0.0633029364197
0.063326474372
0.06333028979
0.0633308869303
0.063330974922
0.0633309780054
0.0633309612513
0.0633309350357
0.0633309016214
0.0633308622126
0.0633308179842
0.0633307701737
0.0633307200244
0.0633306687276
0.0633306173556
0.0633305668103
0.0633305177648
0.0633304706461
0.06333042569
0.0633303828717
0.0633303419647
0.0633303025378
0.0633302640153
0.0633302257219
0.0633301869018
0.0633301465839
0.063330102503
0.0633300439065
0.0633299042424
0.063329253118
0.0633253540315
0.0633015928197
0.0631651945762
0.0624624588396
0.0593015492873
0.0457235955308
0.0461036096927
0.0624663619424
0.0667954919041
0.0679274312913
0.0681902862305
0.0682445125859
0.0682546987167
0.0682564299044
0.0682566262377
0.0682565395418
0.0682563855924
0.0682562011236
0.0682559932669
0.0682557646015
0.0682555172033
0.0682552532292
0.0682549749569
0.0682546847173
0.0682543848323
0.0682540775623
0.0682537650608
0.0682534493527
0.0682531323266
0.0682528157108
0.0682525010949
0.0682521899366
0.068251883592
0.0682515833301
0.0682512902552
0.0682510046587
0.0682507218855
0.0682504070095
0.068249844016
0.0682477726083
0.0682372315691
0.0681824895362
0.0679185542901
0.0667843075088
0.0624517585046
0.0461000029101
0.0461850872979
0.0631669734073
0.0679273364817
0.0692595160376
0.0695931759155
0.0696674199125
0.0696823960328
0.0696851179846
0.0696854647473
0.069685354051
0.0696851377921
0.0696848787514
0.0696845889285
0.0696842719591
0.0696839303618
0.0696835666897
0.0696831836607
0.0696827841067
0.0696823709105
0.0696819469512
0.0696815150592
0.0696810779865
0.0696806383872
0.0696801988057
0.0696797616818
0.0696793293627
0.0696789041254
0.0696784881768
0.0696780834855
0.0696776905836
0.069677301252
0.0696768557912
0.0696760029984
0.0696728160752
0.0696573702085
0.0695824982106
0.0692476653011
0.067913230482
0.0631500303792
0.0461811057594
0.0461991220183
0.0633026075235
0.068190153059
0.0695931363821
0.0699549883049
0.0700380209998
0.0700552914657
0.0700585301483
0.0700589677065
0.0700588538333
0.0700586137603
0.0700583253014
0.0700580034159
0.0700576523692
0.0700572749001
0.0700568737348
0.0700564517747
0.0700560120593
0.0700555577011
0.0700550918277
0.0700546175353
0.0700541378539
0.0700536557244
0.0700531739887
0.0700526953911
0.0700522225934
0.0700517581973
0.0700513047391
0.0700508644663
0.0700504377929
0.0700500140755
0.0700495191093
0.0700485286459
0.0700447832081
0.0700270029533
0.0699432978758
0.0695802260242
0.0681749806229
0.0632847580339
0.0461949916379
0.0462013437689
0.0633261268197
0.0682443566825
0.0696673568686
0.0700379974328
0.0701239857178
0.0701420789349
0.0701455126317
0.0701459848349
0.0701458682211
0.0701456169662
0.0701453152067
0.070144979251
0.0701446136961
0.0701442214219
0.0701438052702
0.0701433682604
0.0701429135522
0.0701424443861
0.0701419640176
0.0701414756677
0.0701409824855
0.0701404875225
0.0701399937214
0.0701395039183
0.070139020859
0.0701385472243
0.0701380856247
0.0701376383518
0.0701372056792
0.0701367758099
0.0701362683688
0.0701352300406
0.0701312771945