/*--------------------------------*- C++ -*----------------------------------*\
| =========                 |                                                 |
| \\      /  F ield         | foam-extend: Open Source CFD                    |
|  \\    /   O peration     | Version:     4.1                                |
|   \\  /    A nd           | Web:         http://www.foam-extend.org         |
|    \\/     M anipulation  |                                                 |
\*---------------------------------------------------------------------------*/
FoamFile
{
    version     2.0;
    format      ascii;
    class       volScalarField;
    location    "0.1";
    object      nut;
}
// * * * * * * * * * * * * * * * * * * * * * * * * * * * * * * * * * * * * * //

dimensions      [0 2 -1 0 0 0 0];

internalField   nonuniform List<scalar> 
96000
(
0.000542266745648
0.000540774913302
0.000541050474799
0.000541143530908
0.000541160696117
0.000541163171581
0.000541163234227
0.000541162867403
0.000541162369429
0.000541161787199
0.000541161130373
0.000541160402676
0.000541159606698
0.000541158744867
0.000541157819804
0.000541156834526
0.000541155792548
0.000541154698004
0.000541153555739
0.00054115237127
0.000541151151063
0.000541149902388
0.000541148632781
0.000541147350924
0.000541146065721
0.000541144786761
0.00054114352383
0.000541142286696
0.000541141084783
0.000541139926679
0.000541138819352
0.000541137766445
0.000541136762192
0.000541135757582
0.000541134438182
0.00054113076629
0.000541112250384
0.000541017081339
0.000540738908559
0.000542265342515
0.000540776394486
0.000327773092471
0.000330615384124
0.000331552229991
0.00033172501144
0.000331752797256
0.000331757065852
0.000331757775812
0.000331757967085
0.000331758085802
0.000331758195994
0.000331758306728
0.000331758419477
0.000331758534932
0.000331758653884
0.000331758777224
0.00033175890581
0.000331759040351
0.000331759181295
0.000331759328747
0.000331759482388
0.000331759641471
0.000331759804868
0.000331759971018
0.000331760138019
0.000331760303659
0.000331760465537
0.000331760621176
0.000331760768138
0.000331760904006
0.000331761025502
0.000331761121617
0.000331761125426
0.00033176058175
0.000331756407514
0.000331728442073
0.00033155443617
0.000330614081643
0.000327776971916
0.000540784150404
0.000541051840173
0.000330614994308
0.000336374685104
0.000338305489675
0.000338727349513
0.000338807264379
0.000338821188808
0.000338823431653
0.000338823694549
0.000338823610641
0.000338823444319
0.000338823237883
0.000338822999099
0.000338822730971
0.000338822436266
0.00033882211804
0.000338821779586
0.000338821424263
0.000338821055356
0.000338820675976
0.00033882028897
0.000338819896886
0.000338819501967
0.000338819106121
0.000338818710983
0.000338818317952
0.000338817928282
0.00033881754317
0.000338817163753
0.000338816790479
0.000338816418467
0.000338816007326
0.00033881529132
0.000338812620847
0.000338798209736
0.000338717409023
0.000338293244201
0.000336358019683
0.000330609113174
0.000541057651316
0.00054114483816
0.000331551661805
0.000338305251459
0.000340683050601
0.000341244243379
0.000341358912699
0.000341380302774
0.000341383920781
0.000341384319898
0.000341384125266
0.000341383789123
0.000341383387638
0.000341382934794
0.000341382435204
0.000341381892637
0.000341381311217
0.000341380695458
0.000341380050105
0.00034137937998
0.00034137868987
0.000341377984438
0.000341377268166
0.000341376545323
0.000341375819962
0.000341375095939
0.000341374376964
0.00034137366667
0.000341372968688
0.00034137228653
0.000341371622297
0.000341370968025
0.000341370252359
0.000341369023589
0.000341364637787
0.000341342441639
0.000341226552681
0.000340662737285
0.000338280855182
0.0003315418487
0.000541149854257
0.000541161982145
0.000331724389643
0.000338727026952
0.000341244152765
0.00034185582701
0.00034198466914
0.00034200942753
0.000342013732765
0.000342014224316
0.000342013997247
0.000342013600551
0.000342013129091
0.000342012600379
0.000342012019823
0.000342011391569
0.000342010720119
0.000342010010416
0.000342009267694
0.00034200849732
0.000342007704674
0.000342006895054
0.000342006073609
0.000342005245303
0.00034200441491
0.000342003587027
0.00034200276613
0.000342001956651
0.000342001163038
0.000342000389595
0.000341999638789
0.000341998900296
0.000341998085166
0.000341996645509
0.000341991465771
0.000341965797865
0.000341835617426
0.000341221192601
0.000338700096677
0.00033171364092
0.000541166934135
0.000541164445307
0.000331752151384
0.000338806901385
0.000341358776954
0.000341984623258
0.000342117826806
0.000342143702846
0.000342148249433
0.000342148773439
0.000342148532584
0.000342148111797
0.000342147613364
0.000342147056319
0.000342146446456
0.000342145788125
0.000342145086028
0.000342144345325
0.000342143571475
0.000342142770097
0.000342141946819
0.00034214110719
0.000342140256599
0.00034213940024
0.000342138543102
0.000342137689983
0.000342136845549
0.000342136014417
0.000342135201222
0.000342134410436
0.000342133644513
0.000342132891969
0.000342132056711
0.00034213055471
0.000342125105487
0.000342098284401
0.000341963673386
0.00034133492678
0.000338778908346
0.000331741138398
0.000541169615935
0.000541164497102
0.000331756398108
0.000338820788492
0.000341380124512
0.000342009338
0.000342143659051
0.000342169835212
0.000342174443337
0.00034217496775
0.000342174712693
0.000342174274142
0.000342173756909
0.000342173180673
0.000342172551504
0.000342171873968
0.00034217115299
0.000342170393944
0.000342169602526
0.000342168784576
0.00034216794594
0.000342167092354
0.000342166229378
0.000342165362338
0.000342164496323
0.000342163636196
0.00034216278665
0.000342161952302
0.000342161137773
0.000342160347491
0.000342159583791
0.000342158834685
0.000342158001583
0.000342156488898
0.000342150966956
0.000342123823036
0.000341988026552
0.000341355723318
0.000338791932593
0.000331745198283
0.000541170035624
0.000541164118024
0.000331757083457
0.000338822988072
0.000341383692387
0.00034201359143
0.000342148153599
0.000342174391318
0.000342179003432
0.000342179515273
0.000342179242837
0.000342178785254
0.000342178248262
0.00034217765195
0.000342177002685
0.000342176305327
0.000342175565088
0.000342174787637
0.000342173978968
0.000342173145202
0.00034217229244
0.000342171426647
0.000342170553566
0.000342169678656
0.000342168807087
0.000342167943743
0.000342167093286
0.000342166260253
0.000342165449141
0.000342164664231
0.000342163907668
0.000342163167135
0.000342162343078
0.000342160836185
0.000342155302097
0.000342128075124
0.000341991962933
0.000341358751381
0.000338793201879
0.000331745697634
0.000541170136232
0.000541163604197
0.000331757247537
0.000338823201216
0.000341384032966
0.000342014022223
0.000342148616566
0.000342174854789
0.000342179454425
0.000342179948634
0.000342179656221
0.000342179177376
0.000342178618386
0.000342177999747
0.000342177328209
0.000342176609012
0.000342175847748
0.000342175050485
0.000342174223592
0.000342173373549
0.000342172506782
0.000342171629529
0.000342170747754
0.000342169867063
0.000342168992685
0.000342168129493
0.000342167282055
0.000342166454743
0.000342165651829
0.00034216487732
0.000342164133056
0.00034216340635
0.000342162597043
0.000342161104153
0.000342155577344
0.000342128329637
0.000341992104034
0.000341358547179
0.000338792409331
0.000331745696905
0.000541170204718
0.0005411630004
0.000331757337815
0.000338823062422
0.000341383772694
0.000342013726792
0.00034214830707
0.000342174531312
0.000342179113817
0.000342179588206
0.000342179274081
0.000342178772275
0.000342178189612
0.000342177547083
0.000342176851929
0.000342176109872
0.00034217532701
0.000342174509905
0.000342173665405
0.000342172800437
0.000342171921828
0.00034217103615
0.000342170149603
0.000342169267948
0.000342168396459
0.000342167539937
0.000342166702766
0.000342165889028
0.00034216510262
0.00034216434711
0.000342163623857
0.000342162919655
0.000342162133699
0.000342160663692
0.000342155154988
0.000342127904878
0.000341991606492
0.000341357794995
0.000338791239427
0.000331745681828
0.000541170285058
0.000541162314209
0.000331757419793
0.000338822837512
0.000341383365146
0.000342013255474
0.000342147811426
0.00034217401831
0.000342178582253
0.000342179035779
0.000342178698941
0.000342178173232
0.000342177566116
0.000342176899196
0.000342176180325
0.000342175415857
0.000342174612514
0.000342173777482
0.000342172918202
0.000342172042162
0.00034217115666
0.000342170268662
0.000342169384654
0.000342168510536
0.000342167651578
0.000342166812423
0.000342165997138
0.000342165209347
0.000342164452371
0.000342163729111
0.0003421630402
0.000342162371687
0.00034216162192
0.000342160187146
0.000342154708294
0.000342127466323
0.000341991101285
0.000341357026102
0.000338790024191
0.000331745762235
0.000541170387708
0.000541161547298
0.000331757503867
0.00033882256992
0.000341382887418
0.000342012704034
0.000342147232875
0.000342173421626
0.000342177966599
0.000342178398875
0.000342178039001
0.000342177489247
0.000342176857848
0.00034217616718
0.000342175425869
0.000342174641043
0.000342173820209
0.000342172971331
0.000342172102587
0.000342171222131
0.00034217033786
0.000342169457197
0.000342168586944
0.000342167733125
0.000342166900936
0.000342166094727
0.000342165318078
0.000342164573929
0.000342163864749
0.000342163192468
0.000342162556679
0.000342161942362
0.00034216124672
0.000342159864227
0.000342154430771
0.000342127208846
0.000341990777875
0.000341356408572
0.00033878888529
0.000331745999883
0.000541170519084
0.000541160700188
0.00033175759266
0.000338822268249
0.000341382354079
0.000342012090533
0.000342146591054
0.000342172761644
0.000342177287775
0.000342177698986
0.000342177316433
0.000342176743317
0.000342176088837
0.000342175376313
0.000342174615315
0.000342173813944
0.000342172980686
0.000342172124445
0.000342171254322
0.000342170379307
0.000342169508012
0.000342168648412
0.000342167807633
0.000342166991807
0.000342166205964
0.000342165454007
0.000342164738786
0.00034216406225
0.000342163425662
0.000342162829579
0.000342162272133
0.000342161736817
0.000342161119287
0.000342159811813
0.00034215444443
0.000342127258464
0.000341990763459
0.000341356063649
0.00033878792393
0.000331746457749
0.000541170685647
0.000541159773246
0.000331757687919
0.000338821936198
0.000341381770162
0.000342011420763
0.000342145892222
0.000342172045029
0.000342176552915
0.000342176943823
0.000342176539673
0.000342175944807
0.000342175269573
0.000342174538441
0.000342173762157
0.00034217295002
0.000342172111702
0.000342171257308
0.000342170397069
0.000342169541014
0.000342168698606
0.000342167878474
0.000342167088133
0.00034216633378
0.000342165620157
0.000342164950504
0.000342164326634
0.000342163749115
0.00034216321754
0.000342162730573
0.00034216228434
0.000342161860307
0.000342161352065
0.000342160149131
0.000342154874728
0.000342127745932
0.00034199119186
0.000341356122152
0.000338787253933
0.000331747208552
0.000541170894456
0.000541158767039
0.000331757791487
0.000338821577241
0.000341381139878
0.000342010699299
0.000342145141265
0.000342171277042
0.00034217576776
0.000342176139764
0.000342175715919
0.000342175101919
0.000342174409495
0.000342173664523
0.000342172879186
0.000342172064237
0.00034217123085
0.000342170390603
0.000342169555132
0.000342168735715
0.000342167942895
0.000342167186087
0.000342166473245
0.000342165810585
0.000342165202411
0.000342164651027
0.000342164156823
0.000342163718488
0.000342163333341
0.000342162997504
0.000342162704402
0.00034216243278
0.000342162073506
0.000342161012674
0.000342155865565
0.00034212882156
0.000341992217476
0.000341356736059
0.000338787008993
0.000331748336996
0.000541171153174
0.000541157682528
0.000331757905356
0.000338821195259
0.000341380467943
0.000342009931232
0.000342144343587
0.000342170463493
0.000342174938667
0.000342175293871
0.000342174853118
0.000342174223701
0.00034217351902
0.000342172766646
0.000342171980499
0.000342171173149
0.000342170357615
0.000342169547285
0.000342168755523
0.000342167995187
0.000342167278133
0.000342166614735
0.000342166013468
0.000342165480513
0.000342165019536
0.000342164631579
0.000342164315127
0.000342164066367
0.000342163879606
0.000342163747579
0.000342163660128
0.000342163592404
0.000342163431724
0.000342162559938
0.000342157583113
0.000342130659081
0.000341994019064
0.000341358081932
0.000338787345331
0.000331749940688
0.000541171469918
0.00054115652127
0.00033175803156
0.000338820794505
0.000341379759643
0.000342009122305
0.000342143505298
0.000342169610938
0.000342174072782
0.000342174414043
0.00034217396012
0.000342173320205
0.000342172609677
0.000342171858141
0.000342171081653
0.000342170295011
0.000342169513467
0.000342168752661
0.000342168028107
0.000342167354611
0.000342166745658
0.000342166212813
0.000342165765131
0.000342165408737
0.000342165146453
0.000342164977648
0.000342164898299
0.000342164901314
0.000342164977059
0.000342165113841
0.00034216529682
0.00034216549646
0.0003421655955
0.000342164970541
0.000342160216973
0.000342133456807
0.000341996800844
0.000341360362054
0.000338788442806
0.000331752130255
0.000541171853009
0.000541155285592
0.000331758172012
0.000338820379427
0.000341379020673
0.00034200827876
0.000342142633047
0.000342168726505
0.000342173177852
0.000342173508826
0.000342173046489
0.00034217240226
0.000342171693857
0.000342170953348
0.000342170199381
0.00034216944942
0.000342168721499
0.000342168034016
0.000342167405138
0.000342166852092
0.00034216639037
0.00034216603299
0.00034216578978
0.000342165666745
0.000342165665604
0.000342165783566
0.000342166013382
0.000342166343733
0.0003421667599
0.000342167244482
0.000342167776601
0.000342168320684
0.000342168753628
0.000342168445581
0.000342163979578
0.000342137437098
0.000342000792066
0.000341363804002
0.000338790504644
0.000331755028657
0.00054117231061
0.000541153978728
0.000331758328345
0.000338819954495
0.000341378256957
0.000342007407149
0.000342141733819
0.000342167817679
0.000342172262001
0.000342172587171
0.000342172122222
0.000342171481164
0.000342170784501
0.000342170067237
0.000342169351112
0.00034216865686
0.000342168005884
0.000342167419966
0.000342166920549
0.00034216652781
0.000342166259761
0.000342166131258
0.000342166153065
0.000342166331043
0.000342166665523
0.000342167150985
0.000342167776093
0.000342168524158
0.000342169373996
0.000342170300939
0.000342171276414
0.000342172257171
0.000342173112724
0.000342173205331
0.000342169103768
0.000342142843808
0.000342006244372
0.000341368658207
0.000338793755417
0.000331758769531
0.000541172850262
0.000541152604996
0.000331758501763
0.000338819524012
0.00034137747446
0.000342006514146
0.000342140814747
0.000342166892089
0.000342171333507
0.000342171658182
0.00034217119746
0.000342170568381
0.000342169894716
0.000342169214945
0.000342168554513
0.000342167938091
0.000342167391164
0.000342166939645
0.000342166608937
0.000342166422908
0.000342166402679
0.000342166565389
0.000342166922998
0.000342167481214
0.00034216823867
0.000342169186459
0.000342170308149
0.000342171580327
0.000342172973695
0.000342174454439
0.000342175984304
0.000342177510371
0.00034217889291
0.000342179484568
0.000342175837698
0.000342149936681
0.00034201342564
0.000341375191548
0.000338798435505
0.000331763493632
0.000541173478297
0.000541151169793
0.000331758692923
0.000338819091988
0.000341376679076
0.000342005606396
0.000342139882937
0.00034216595734
0.000342170400586
0.00034217073086
0.000342170282216
0.000342169675193
0.000342169037374
0.000342168411317
0.000342167826888
0.000342167313453
0.000342166901412
0.000342166621635
0.000342166504393
0.000342166578051
0.000342166867563
0.000342167392917
0.000342168167598
0.000342169197196
0.000342170478311
0.000342171997917
0.000342173733313
0.000342175652773
0.000342177716935
0.000342179880595
0.000342182093392
0.000342184290275
0.000342186319873
0.000342187523506
0.000342184435082
0.000342158980525
0.0003420226074
0.000341383680977
0.000338804806963
0.000331769345832
0.000541174200126
0.000541149680179
0.000331758901787
0.000338818662009
0.000341375876493
0.000342004690422
0.000342138945353
0.000342165020834
0.000342169471203
0.0003421698139
0.000342169386104
0.000342168812379
0.000342168224691
0.000342167670395
0.000342167184546
0.000342166802076
0.000342166559228
0.000342166492827
0.000342166639021
0.00034216703163
0.000342167700305
0.000342168668569
0.00034216995186
0.00034217155573
0.000342173474412
0.000342175689934
0.000342178171987
0.000342180878681
0.000342183758198
0.000342186751062
0.000342189791724
0.000342192800783
0.000342195610744
0.00034219759643
0.00034219529966
0.000342170526723
0.000342034484602
0.000341395850744
0.000338815788898
0.000331776916749
0.000541175063026
0.00054114814438
0.000331759127614
0.000338818237196
0.000341375072119
0.000342003772501
0.000342138008696
0.000342164089657
0.000342168552925
0.000342168915478
0.000342168518078
0.000342167989852
0.000342167467817
0.000342167004869
0.000342166642108
0.000342166421004
0.000342166384661
0.000342166577016
0.000342167041218
0.00034216781765
0.00034216894167
0.000342170441154
0.000342172334024
0.000342174625942
0.000342177308429
0.000342180357654
0.000342183734108
0.000342187383279
0.000342191237536
0.00034219522018
0.0003421992787
0.00034220342032
0.000342207385521
0.000342215025128
0.000342221064886
0.000342204468667
0.000342075788636
0.000341440982628
0.000338858208457
0.000331809413697
0.000541177389696
0.000541146571496
0.000331759368978
0.000338817820162
0.000341374271043
0.000342002858622
0.000342137079327
0.000342163170475
0.000342167652772
0.000342168043068
0.000342167686185
0.000342167216379
0.000342166776419
0.000342166425541
0.000342166211814
0.000342166184261
0.000342166394046
0.000342166893418
0.000342167733797
0.000342168963384
0.00034217062439
0.000342172749997
0.000342175361254
0.00034217846414
0.000342182047101
0.000342186079245
0.000342190509271
0.000342195267133
0.000342200304147
0.000342205687744
0.000342214886628
0.000342230861905
0.000342246799123
0.00034226133604
0.000342270844465
0.0003422570267
0.000342130431821
0.000341496066475
0.000338910112076
0.000331853732919
0.000541182721295
0.000541144972638
0.000331759623664
0.000338817412969
0.000341373478009
0.000342001954455
0.00034213616323
0.000342162269462
0.000342166777129
0.000342167203308
0.000342166897362
0.000342166499282
0.000342166158288
0.000342165940791
0.0003421659028
0.000342166101985
0.000342166598796
0.000342167455117
0.000342168732013
0.000342170486871
0.000342172770029
0.000342175621052
0.000342179064857
0.000342183107967
0.000342187735034
0.000342192905375
0.000342198553811
0.000342204799104
0.000342215824681
0.000342236181336
0.000342257147765
0.000342277777324
0.000342297593216
0.00034231574172
0.000342328622734
0.000342317872213
0.000342193700873
0.000341559967563
0.000338970564073
0.00033190512313
0.000541188916362
0.000541143359599
0.000331759888787
0.000338817017183
0.000341372697434
0.000342001065362
0.000342135266007
0.000342161392283
0.000342165931689
0.000342166401903
0.00034216615731
0.00034216584423
0.000342165619037
0.000342165556159
0.000342165720518
0.000342166179571
0.00034216700431
0.000342168267625
0.000342170041674
0.000342172394481
0.000342175385885
0.000342179062996
0.000342183455364
0.000342188569888
0.000342194384852
0.000342200865964
0.000342208315366
0.000342229816147
0.00034225492123
0.000342280572425
0.000342306166293
0.00034233127701
0.000342355432592
0.000342377718233
0.000342394474578
0.000342387240812
0.00034226585933
0.000341632932817
0.000339039762061
0.000331963625803
0.000541195920094
0.000541141745614
0.000331760160806
0.000338816633913
0.000341371933449
0.000342000196427
0.000342134392907
0.000342160544113
0.000342165121451
0.000342165643593
0.000342165470405
0.000342165255096
0.000342165161876
0.000342165273998
0.000342165666254
0.00034216641701
0.000342167609043
0.000342169327628
0.000342171657479
0.00034217467874
0.000342178462161
0.000342183063562
0.000342188517508
0.00034219482921
0.000342202016728
0.000342212966893
0.000342239846019
0.000342269152724
0.000342299470311
0.00034233026997
0.000342361041607
0.000342391244242
0.000342420300678
0.000342447224466
0.000342468305036
0.000342464984851
0.00034234671172
0.000341714720594
0.000339117409589
0.000332028867224
0.000541203672167
0.000541140144617
0.000331760435675
0.000338816263898
0.000341371189946
0.000341999352505
0.000342133548861
0.000342159729662
0.00034216435074
0.000342164932156
0.000342164839672
0.000342164733895
0.00034216478749
0.000342165093285
0.000342165736836
0.000342166808457
0.000342168403893
0.000342170622123
0.000342173561826
0.000342177316711
0.000342181969789
0.000342187586422
0.000342194204833
0.000342201873032
0.000342214754493
0.000342244735956
0.00034227774705
0.000342312478044
0.000342348419401
0.000342384979611
0.000342421497947
0.000342457311
0.000342491745542
0.000342523745858
0.000342549551187
0.000342550504883
0.000342435638391
0.000341804725899
0.000339202976507
0.000332100412726
0.000541212101915
0.00054113857092
0.000331760708975
0.000338815907496
0.000341370470458
0.00034199853803
0.000342132738274
0.000342158952956
0.000342163622984
0.000342164270178
0.000342164266554
0.000342164280543
0.000342164493791
0.000342165009347
0.000342165924307
0.000342167341842
0.000342169371723
0.000342172127809
0.000342175724023
0.000342180268942
0.0003421858589
0.000342192568279
0.000342200454329
0.000342212135502
0.000342244044636
0.000342280040701
0.000342318593309
0.000342359227026
0.000342401320076
0.00034244412274
0.00034248684016
0.000342528691606
0.000342568905716
0.000342606354148
0.000342637224037
0.0003426427571
0.000342531551083
0.000341901843966
0.000339295421151
0.00033217751242
0.000541221122837
0.000541137038613
0.000331760975932
0.000338815564074
0.000341369776864
0.00034199775533
0.000342131963177
0.000342158215438
0.000342162938802
0.000342163657153
0.00034216374903
0.000342163891
0.000342164274091
0.000342165012072
0.000342166214187
0.000342167997191
0.000342170485725
0.000342173809496
0.000342178098723
0.000342183477859
0.000342190056762
0.000342197918876
0.000342207499976
0.000342237844173
0.00034227585611
0.000342317323718
0.000342361817832
0.000342408761282
0.000342457376846
0.000342506777551
0.000342556038101
0.000342604256404
0.000342650557567
0.00034269373617
0.000342729924364
0.000342740258899
0.000342632888405
0.000342004451626
0.000339393109013
0.000332258603743
0.000541230535532
0.000541135560611
0.000331761230597
0.000338815227387
0.000341369100729
0.000341996993658
0.000342131211303
0.000342157503725
0.000342162283672
0.000342163077145
0.000342163269301
0.00034216354501
0.000342164104918
0.000342165073822
0.000342166573513
0.000342168734805
0.00034217169779
0.000342175608699
0.000342180614762
0.00034218685677
0.000342194457857
0.000342203673842
0.000342226724565
0.000342265519899
0.000342308764479
0.000342355964457
0.000342406673397
0.000342460166752
0.000342515535957
0.000342571761897
0.000342627785873
0.000342682579447
0.000342735159144
0.00034278423817
0.000342825890364
0.000342841144779
0.000342737693967
0.000342110549742
0.000339494134117
0.000332342187724
0.000541240164665
0.000541134146714
0.000331761459004
0.000338814855328
0.000341368369852
0.00034199616321
0.000342130385237
0.000342156717175
0.000342161555005
0.000342162425688
0.000342162720626
0.000342163132906
0.000342163872817
0.000342165076269
0.000342166877739
0.000342169422287
0.000342172865712
0.000342177371074
0.00034218310289
0.000342190217842
0.000342198869647
0.000342212055818
0.000342249765206
0.00034229351555
0.000342342057582
0.000342395132691
0.00034245215977
0.000342512294984
0.000342574507321
0.000342637645453
0.000342700514624
0.000342761956742
0.000342820876231
0.000342875901379
0.000342923044779
0.000342943226985
0.000342843688605
0.000342217824121
0.000339596285525
0.000332426472681
0.000541249801181
0.000541132797164
0.000331761590841
0.00033881417947
0.000341367130378
0.000341994713715
0.000342128897879
0.000342155256165
0.000342160148207
0.000342161094927
0.000342161491816
0.00034216203949
0.000342162957587
0.000342164392935
0.000342166492551
0.000342169415589
0.000342173333434
0.00034217842586
0.00034218487435
0.00034219285116
0.000342202705329
0.000342229285617
0.00034227214177
0.000342320604927
0.000342374472489
0.000342433400613
0.000342496701539
0.000342563426667
0.000342632426298
0.000342702417346
0.000342772068557
0.000342840091157
0.000342905275513
0.000342966161796
0.000343018698464
0.000343043701247
0.000342947987055
0.000342323414132
0.000339696956984
0.00033250949193
0.000541259220929
0.000541131468219
0.000331761165788
0.000338811543207
0.000341362730409
0.000341989520528
0.000342123458224
0.000342149778699
0.000342154704428
0.0003421557174
0.00034215620788
0.000342156881385
0.000342157965949
0.000342159618713
0.000342161998676
0.000342165278585
0.000342169644813
0.000342175293227
0.000342182421186
0.000342191220684
0.000342203164201
0.000342242688038
0.000342289714053
0.000342342792545
0.000342401857134
0.000342466468051
0.000342535853057
0.000342608966842
0.000342684545215
0.000342761175933
0.000342837393533
0.000342911780019
0.000342983011154
0.000343049536839
0.000343107243141
0.000343136871128
0.00034304494025
0.000342422103267
0.000339792083176
0.000332588953747
0.000541268171577
0.000541129848353
0.000331757086737
0.000338797134337
0.000341340484553
0.00034196379948
0.000342096601411
0.000342122626974
0.000342127507103
0.000342128548386
0.000342129100206
0.000342129863963
0.000342131073317
0.000342132894272
0.000342135496559
0.00034213906526
0.000342143800406
0.000342149912495
0.000342157613519
0.000342167217654
0.000342188948529
0.000342232939922
0.000342283748824
0.000342341168003
0.000342405090723
0.000342475005024
0.000342550067567
0.000342629143986
0.000342710863029
0.000342793688988
0.000342876028729
0.000342956340399
0.000343033187939
0.00034310493509
0.00034316743443
0.000343201499465
0.000343113891439
0.000342495474035
0.000339868736737
0.00033265992236
0.000541276143676
0.000541125895397
0.000331729138872
0.000338716208538
0.000341224398988
0.000341833404593
0.000341961775861
0.000341986622127
0.000341991197789
0.000341992143509
0.000341992649366
0.000341993385114
0.000341994582342
0.000341996412162
0.00034199905185
0.000342002695571
0.000342007553712
0.000342013847782
0.00034202180036
0.000342031890648
0.000342063200729
0.000342110101544
0.000342164009476
0.000342225017978
0.000342292956961
0.000342367261793
0.000342447034254
0.000342531065038
0.000342617892293
0.000342705870289
0.000342793296168
0.000342878520164
0.000342960008794
0.000343036068438
0.000343102643417
0.000343141175789
0.000343060729854
0.000342458240777
0.000339865048261
0.00033269909305
0.000541280758152
0.000541107084078
0.000331554887863
0.000338291530397
0.000340659970073
0.000341218321314
0.000341332327176
0.000341353564861
0.000341357171807
0.000341357703957
0.00034135787955
0.000341358269307
0.000341359084402
0.000341360491434
0.000341362666649
0.000341365804346
0.000341370115912
0.000341375824342
0.000341383152652
0.000341392722001
0.00034143085175
0.000341478730147
0.000341533851499
0.000341596353308
0.000341666019254
0.00034174225158
0.000341824130314
0.000341910407191
0.00034199957035
0.000342089902798
0.000342179644161
0.000342267083733
0.000342350639251
0.000342428652164
0.000342497517875
0.00034254092314
0.000342476703308
0.000341928682209
0.000339482025246
0.000332573804477
0.000541268410121
0.000541011517887
0.000330613833241
0.00033635532294
0.000338277095464
0.000338696194291
0.000338775178927
0.000338788503982
0.000338790177842
0.000338789912791
0.000338789423854
0.000338789078295
0.000338789036461
0.000338789440621
0.000338790446051
0.000338792225559
0.000338794968216
0.000338798874506
0.000338804156443
0.000338812797871
0.000338849757759
0.000338894990988
0.000338947295361
0.00033900677433
0.000339073196172
0.000339145959352
0.000339224184733
0.000339306681863
0.000339391972474
0.000339478373035
0.000339564191896
0.000339647770827
0.000339727596197
0.000339802225671
0.000339869144574
0.000339917405628
0.000339887982365
0.000339486990719
0.000337510513241
0.0003316427602
0.000541174504767
0.000540733004066
0.000327778664618
0.000330609248993
0.000331541479378
0.000331713331193
0.000331741073635
0.000331745475791
0.000331746412105
0.000331746958294
0.000331747620205
0.000331748530296
0.00033174977492
0.000331751442843
0.000331753632414
0.000331756451931
0.000331760017933
0.0003317644518
0.000331769876428
0.000331776770059
0.000331805251116
0.000331844820234
0.000331890370717
0.000331941857561
0.000331999045315
0.000332061370259
0.000332128028853
0.000332198189886
0.000332270449681
0.000332343424783
0.000332415737835
0.000332486022538
0.000332553058831
0.000332615834901
0.000332673312212
0.000332722084864
0.000332740833881
0.000332600290467
0.00033166289488
0.000328804655482
0.000540888701011
0.000542265048411
0.000540784192924
0.000541057581148
0.000541149743227
0.000541166832137
0.00054116954071
0.000541169996782
0.000541170142774
0.000541170266667
0.000541170413775
0.00054117059592
0.000541170820819
0.000541171096036
0.000541171429365
0.000541171828617
0.000541172301236
0.000541172853794
0.000541173491959
0.000541174249203
0.00054117606614
0.000541180792427
0.000541186262898
0.000541192415003
0.00054119920961
0.000541206572867
0.00054121438675
0.000541222564938
0.000541230925983
0.000541239308481
0.000541247553808
0.000541255507025
0.00054126303403
0.000541270027611
0.000541276384208
0.000541281772311
0.000541284041653
0.000541269947924
0.000541175208263
0.0005408876694
0.000542278819201
0.000543205873534
0.000551463943912
0.000554632871733
0.000555366661377
0.000555501731893
0.000555524376141
0.000555528767615
0.000555530570276
0.000555532176867
0.000555533933465
0.000555535884746
0.000555538032806
0.000555540373634
0.000555542901911
0.00055554561127
0.000555548494023
0.000555551540846
0.000555554740424
0.000555558079248
0.000555561541525
0.000555565108739
0.000555568760186
0.000555572472706
0.000555576220948
0.000555579978138
0.000555583715586
0.000555587403761
0.000555591012935
0.00055559451412
0.000555597880215