/*--------------------------------*- C++ -*----------------------------------*\
| =========                 |                                                 |
| \\      /  F ield         | foam-extend: Open Source CFD                    |
|  \\    /   O peration     | Version:     4.1                                |
|   \\  /    A nd           | Web:         http://www.foam-extend.org         |
|    \\/     M anipulation  |                                                 |
\*---------------------------------------------------------------------------*/
FoamFile
{
    version     2.0;
    format      ascii;
    class       volScalarField;
    location    "0.1";
    object      p;
}
// * * * * * * * * * * * * * * * * * * * * * * * * * * * * * * * * * * * * * //

dimensions      [1 -1 -2 0 0 0 0];

internalField   nonuniform List<scalar> 
96000
(
5159.03369217
5159.07118264
5159.16670574
5159.30746654
5159.50024955
5159.74024618
5160.02793688
5160.36123367
5160.73877212
5161.15878595
5161.61937041
5162.11840479
5162.65354041
5163.22218739
5163.82150759
5164.44841243
5165.09956522
5165.77138739
5166.46006879
5167.16158006
5167.87169407
5168.5860091
5169.29996986
5170.00888777
5170.70798481
5171.3924314
5172.05737833
5172.6979985
5173.309529
5173.88731457
5174.42685166
5174.92383251
5175.37418233
5175.77415536
5176.12014417
5176.40956155
5176.63904369
5176.80795492
5176.91729056
5176.96314724
5159.07753307
5159.10622914
5159.19550633
5159.33356544
5159.52571443
5159.76626088
5160.05511331
5160.3899882
5160.76942258
5161.19160609
5161.65461406
5162.15631455
5162.69435096
5163.26612585
5163.86879245
5164.49925177
5165.15415441
5165.82990664
5166.52268056
5167.22842785
5167.94289906
5168.66166321
5169.38013046
5170.09358833
5170.79722796
5171.48618479
5172.15557581
5172.80054135
5173.41628888
5173.99813925
5174.5415754
5175.04229458
5175.49626043
5175.89982689
5176.24962213
5176.54346399
5176.77911912
5176.95686138
5177.08169964
5177.14352696
5159.18845014
5159.21106369
5159.29405017
5159.42907325
5159.62103739
5159.86359286
5160.15589409
5160.49530321
5160.88016136
5161.30856194
5161.77852983
5162.28790173
5162.83429635
5163.41509208
5164.02741501
5164.6681342
5165.33386224
5166.02096069
5166.72554959
5167.44352093
5168.1705568
5168.90215039
5169.63363197
5170.36019988
5171.07695352
5171.77893186
5172.4611541
5173.11866424
5173.74657908
5174.3401404
5174.89477306
5175.40615215
5175.87027989
5176.28364838
5176.64320203
5176.94725403
5177.19455408
5177.38553883
5177.52574392
5177.59666102
5159.35252658
5159.37254192
5159.45256174
5159.58690768
5159.78069931
5160.02733624
5160.32550417
5160.67226924
5161.0658013
5161.50409428
5161.98511539
5162.50666045
5163.06631243
5163.66141248
5164.28904389
5164.94602487
5165.62890755
5166.33398217
5167.05728582
5167.79461558
5168.54154629
5169.29345238
5170.04553459
5170.79285167
5171.53035542
5172.25293083
5172.95543979
5173.63276927
5174.27988414
5174.89188577
5175.46407906
5175.99205216
5176.47177086
5176.89976531
5177.27312212
5177.59037088
5177.8506314
5178.05389622
5178.20545969
5178.28192857
5159.57719586
5159.59668101
5159.67662882
5159.81286143
5160.01092828
5160.26415775
5160.57100003
5160.92831751
5161.33415499
5161.78642248
5162.28303199
5162.82173443
5163.40006871
5164.01532662
5164.66453282
5165.3444348
5166.05149997
5166.78191839
5167.53161046
5168.29623962
5169.0712298
5169.85178796
5170.63293164
5171.4095217
5172.17629983
5172.92793105
5173.65905089
5174.36431761
5175.03846992
5175.67639143
5176.2731847
5176.82425884
5177.32543194
5177.77312519
5178.16435115
5178.49755897
5178.77177911
5178.98635024
5179.1462832
5179.22557463
5159.85750445
5159.87761558
5159.9596941
5160.1001084
5160.30482674
5160.56715417
5160.88545683
5161.25647576
5161.67817781
5162.14840999
5162.66503578
5163.2257601
5163.82807161
5164.46920253
5165.14610472
5165.85543677
5166.59355879
5167.35653335
5168.14013197
5168.93984695
5169.75090871
5170.56830866
5171.38682782
5172.20107119
5173.00550764
5173.79451551
5174.56243357
5175.30361754
5176.01250268
5176.68367343
5177.31194264
5177.89244352
5178.42073425
5178.89299067
5179.30598135
5179.65788296
5179.94743699
5180.17338853
5180.34082167
5180.42254558
5160.1940593
5160.21539108
5160.30104271
5160.44745778
5160.66096862
5160.93482827
5161.26737256
5161.65526475
5162.09642192
5162.58864432
5163.12975363
5163.71740936
5164.34904578
5165.0218271
5165.73261991
5166.47797699
5167.25412957
5168.05698614
5168.88213737
5169.7248669
5170.58016836
5171.44276862
5172.3071575
5173.16762403
5174.01829921
5174.85320501
5175.66630957
5176.45158853
5177.20309256
5177.91502218
5178.5818115
5179.19822347
5179.75945549
5180.26132986
5180.70026147
5181.07405691
5181.3811267
5181.61971503
5181.7952809
5181.87976517
5160.58483958
5160.60780333
5160.69812958
5160.85208176
5161.07633997
5161.36407045
5161.71359554
5162.12152128
5162.58572984
5163.10398507
5163.67407159
5164.29360404
5164.95995899
5165.67022561
5166.42117398
5167.20923553
5168.03049219
5168.88067261
5169.75515514
5170.64897733
5171.55685236
5172.47319258
5173.3921405
5174.3076072
5175.21331821
5176.10286659
5176.96977293
5177.80755202
5178.60978618
5179.37020565
5180.08277759
5180.74180539
5181.34203692
5181.8788553
5182.34824834
5182.74759716
5183.07497901
5183.32816762
5183.51317114
5183.6009825
5161.02859493
5161.05351477
5161.14944019
5161.31231634
5161.54917864
5161.8530749
5162.22231361
5162.65345158
5163.14434357
5163.692724
5164.29634459
5164.95277638
5165.65933631
5166.41303299
5167.21053048
5168.04812476
5168.92172915
5169.82686754
5170.7586749
5171.71190503
5172.68094624
5173.65984511
5174.64233873
5175.62189559
5176.59176508
5177.54503517
5178.47469808
5179.37372322
5180.23513724
5181.05211131
5181.8180566
5182.52672955
5183.17234518
5183.74977137
5184.2545074
5184.68346061
5185.03436642
5185.30449904
5185.50052454
5185.59227434
5161.52367449
5161.55084094
5161.65321564
5161.82633112
5162.07760533
5162.39994227
5162.79163303
5163.24918788
5163.77043876
5164.35309618
5164.99488324
5165.69332974
5166.44569263
5167.24889621
5168.09949084
5168.99362449
5169.92702398
5170.89498447
5171.89236682
5172.91360333
5173.95271219
5175.00332138
5176.0587022
5177.11181299
5178.15535266
5179.18182389
5180.18360523
5181.15303161
5182.08248247
5182.96447736
5183.7917798
5184.55751045
5185.25526811
5185.87932969
5186.42464252
5186.88758337
5187.26551618
5187.55514555
5187.76387509
5187.860157
5162.06828647
5162.09797966
5162.20762566
5162.39226898
5162.65974765
5163.00280097
5163.41969996
5163.90690988
5164.46224422
5165.08339551
5165.76806375
5166.51374152
5167.31762748
5168.17656013
5169.08697039
5170.0448477
5171.04571606
5172.08461897
5173.15611313
5174.25427139
5175.37269576
5176.50454106
5177.64255001
5178.77909992
5179.90626097
5181.01586556
5182.09958826
5183.14903504
5184.15584115
5185.11177684
5186.00886153
5186.83948688
5187.5965476
5188.27364833
5188.86511252
5189.36671583
5189.77540046
5190.08720678
5190.31035105
5190.41171463
5162.66040513
5162.6929032
5162.81063377
5163.0080852
5163.29355944
5163.65961303
5164.10449672
5164.62463284
5165.21782215
5165.88174654
5166.61409038
5167.4123154
5168.27356613
5169.1945962
5170.17171403
5171.20074212
5172.2769872
5173.39521963
5174.5496626
5175.73399166
5176.94134568
5178.16435023
5179.39515399
5180.62547883
5181.84668345
5183.04984
5184.22582296
5185.36540879
5186.45938522
5187.49866913
5188.4744329
5189.37823948
5190.20218447
5190.93911065
5191.5826346
5192.12784627
5192.57119841
5192.90795679
5193.14722989
5193.25417023
5163.2977454
5163.33332761
5163.45995418
5163.67149209
5163.97675482
5164.36810019
5164.84376116
5165.40012076
5166.03497475
5166.746004
5167.53088719
5168.38706426
5169.3116327
5170.30126526
5171.35214737
5172.45992897
5173.61968724
5174.82589965
5176.07242752
5177.35251151
5178.65877984
5179.98327095
5181.31747137
5182.65236949
5183.9785252
5185.28615488
5186.5652306
5187.80559194
5188.99706868
5190.12961282
5191.19343927
5192.17917455
5193.07801174
5193.88193254
5194.58375227
5195.17777717
5195.65988778
5196.02445298
5196.28155958
5196.39450803
5163.97773503
5164.01668215
5164.15301487
5164.37991487
5164.70675705
5165.12568642
5165.6349232
5166.23081685
5166.91116837
5167.67366979
5168.51600698
5169.43561032
5170.42954059
5171.49439681
5172.62624437
5173.82055783
5175.0721752
5176.37526326
5177.72329465
5179.10903796
5180.52456276
5181.96126108
5183.40988661
5184.86061243
5186.30310751
5187.72663115
5189.12014417
5190.47243472
5191.77225646
5193.00847702
5194.17023506
5195.24710448
5196.22926329
5197.10772305
5197.87439208
5198.52268215
5199.04780492
5199.44309886
5199.71972224
5199.83903532
5164.69749242
5164.74008556
5164.88693021
5165.13045961
5165.48066142
5165.92945554
5166.47505711
5167.11378998
5167.84347337
5168.66182558
5169.56655575
5170.55510034
5171.62449728
5172.7712827
5173.99140838
5175.28017403
5176.63217183
5178.04124264
5179.50044514
5181.00203964
5182.53748898
5184.0974782
5185.67195494
5187.25019163
5188.82086939
5190.37218335
5191.89196744
5193.36783637
5194.78734161
5196.13813864
5197.40816257
5198.58580973
5199.66012141
5200.62102007
5201.45939053
5202.16762688
5202.74016186
5203.16915776
5203.46694347
5203.59288896
5165.45380916
5165.50032764
5165.65848011
5165.91988913
5166.29520721
5166.77611875
5167.36084385
5168.04569124
5168.82851414
5169.70707532
5170.67912664
5171.74212983
5172.8931177
5174.12857826
5175.4443598
5176.83559155
5178.29661654
5179.82093719
5181.40117518
5183.02904767
5184.69536276
5186.39003713
5188.10213713
5189.81994563
5191.53105441
5193.2224816
5194.88081206
5196.4923577
5198.04333388
5199.52004792
5200.90909581
5202.19756274
5203.37322293
5204.4247815
5205.34197276
5206.11603775
5206.74050616
5207.20620611
5207.52674014
5207.65948102
5166.24313684
5166.29385544
5166.46409446
5166.74460488
5167.14675608
5167.66198879
5168.28854041
5169.02271752
5169.86242596
5170.80549433
5171.84974
5172.99267302
5174.2313427
5175.5622076
5176.98102709
5178.48276802
5180.06152461
5181.71045175
5183.42171358
5185.1864508
5186.99476982
5188.83575691
5190.69752013
5192.56726107
5194.43137649
5196.27558945
5198.08510727
5199.84480277
5201.53941382
5203.15375597
5204.6729426
5206.08260652
5207.36911641
5208.51982331
5209.52317428
5210.36911
5211.05011884
5211.55552289
5211.90030442
5212.03988004
5167.06157848
5167.11676408
5167.29984248
5167.60063388
5168.03127598
5168.58295998
5169.25395503
5170.04058099
5170.94081774
5171.95258403
5173.07378908
5174.30201787
5175.63436178
5177.06727303
5178.59644052
5180.21668122
5181.92184503
5183.70473348
5185.55703586
5187.46928545
5189.43084094
5191.42989646
5193.45352386
5195.48774935
5197.5176655
5199.52757759
5201.50118147
5203.42176841
5205.27245087
5207.03640223
5208.69710316
5210.23858601
5211.6456687
5212.90420396
5214.00120613
5214.92515684
5215.6673504
5216.21541732
5216.58582595
5216.73213277
5167.90488431
5167.96479223
5168.16142695
5168.48362092
5168.94433048
5169.5344938
5170.25242815
5171.09448452
5172.05874069
5173.14323281
5174.34599142
5175.66470668
5177.09654155
5178.63796896
5180.28463024
5182.03120936
5183.87132027
5185.79740972
5187.80067793
5189.87102255
5191.9970106
5194.16588327
5196.36359787
5198.57490982
5200.78349578
5202.97211702
5205.12281965
5207.21716603
5209.23649005
5211.16216727
5212.97589026
5214.65993785
5216.19742672
5217.57256131
5218.77077026
5219.77890724
5220.58690518
5221.18050423
5221.57776315
5221.73053539
5168.76845344
5168.83332321
5169.04418398
5169.3888264
5169.88107389
5170.51161064
5171.27881996
5172.17910381
5173.21066405
5174.37168399
5175.66034787
5177.0744845
5178.61136157
5180.26750369
5182.03853181
5183.91901782
5185.90235286
5187.98063117
5190.14455375
5192.38335775
5194.68477713
5197.03504103
5199.41891479
5201.81978734
5204.21980652
5206.60006135
5208.9408071
5211.22172672
5213.42221901
5215.52170274
5217.49992396
5219.3372519
5221.01494861
5222.51541648
5223.82234007
5224.92076734
5225.79908897
5226.44094344
5226.86608032
5227.02487219
5169.64733725
5169.71739132
5169.94308832
5170.31113013
5170.836253
5171.5088885
5172.32750517
5173.2885775
5174.39045929
5175.63151288
5177.01011098
5178.5242574
5180.17136078
5181.94803204
5183.8499027
5185.87145786
5188.00588298
5190.2449265
5192.57878431
5194.99601192
5197.48347225
5200.02632607
5202.60807128
5205.21063591
5207.81452657
5210.39903154
5212.94247363
5215.4225049
5217.8164317
5220.10155632
5222.25551946
5224.25662457
5226.0841254
5227.71846753
5229.14142998
5230.33607093
5231.28904575
5231.98166971
5232.4354763
5232.59964862
5170.53626218
5170.61169778
5170.85276622
5171.24504245
5171.80421626
5172.52046985
5173.39237672
5174.41650667
5175.59139453
5176.91561495
5178.38776569
5180.00606395
5181.76809818
5183.67060323
5185.70925546
5187.87848229
5190.17128463
5192.57907636
5195.09154651
5197.69655231
5200.38005186
5203.12608505
5205.91681043
5208.73260368
5211.55222035
5214.35302174
5217.11125855
5219.80240253
5222.40151237
5224.88361678
5227.22409519
5229.3990323
5231.38552293
5233.1619033
5234.70788569
5236.00435104
5237.03601693
5237.78164626
5238.26464066
5238.43335337
5171.42964566
5171.51062455
5171.76751289
5172.18472228
5172.77893119
5173.5400774
5174.46685933
5175.55596546
5176.8061412
5178.21620752
5179.78502473
5181.51106313
5183.39213162
5185.42512859
5187.6058125
5189.92858507
5192.38628776
5194.97001503
5197.66895199
5200.47024576
5203.3589208
5206.31784881
5209.32778214
5212.36745783
5215.41377558
5218.44204859
5221.42632105
5224.33974052
5227.15496875
5229.84461022
5232.38163397
5234.73976021
5236.89378151
5238.81977816
5240.49523813
5241.89867809
5243.01266922
5243.81319028
5244.32558312
5244.49779631
5172.3216189
5172.4082616
5172.68132085
5173.12400485
5173.75401152
5174.56104049
5175.54393461
5176.69952429
5178.02679479
5179.52484722
5181.19284188
5183.02954223
5185.0330188
5187.20037458
5189.52748875
5192.00877202
5194.63693441
5197.40277002
5200.29496748
5203.2999571
5206.40180686
5209.58217934
5212.82036089
5216.09337105
5219.37615689
5222.64187088
5225.86222533
5229.00790939
5232.04904897
5234.95568482
5237.69823804
5240.2479299
5242.57711817
5244.65949156
5246.47016443
5247.98510737
5249.18453517
5250.04141298
5250.58308184
5250.7575709
5173.20605475
5173.29845054
5173.58791715
5174.05643887
5174.72275444
5175.57633257
5176.61617861
5177.83928726
5179.24491162
5180.83246554
5182.60144567
5184.55094778
5186.67934472
5188.98398502
5191.46090794
5194.10456912
5196.90757749
5199.86044908
5202.95138784
5206.1661062
5209.48769937
5212.89658784
5216.3705411
5219.88479254
5223.412251
5226.92380797
5230.38873188
5233.77513372
5237.05047975
5240.18212304
5243.13781637
5245.886165
5248.39697607
5250.64142558
5252.59211741
5254.22230374
5255.50963528
5256.42384537
5256.99432476
5257.16971045
5174.07662175
5174.17481805
5174.48080586
5174.97533176
5175.67818823
5176.57862077
5177.67581315
5178.96694494
5180.45156303
5182.12942429
5184.00039585
5186.06394277
5188.31877904
5190.76253817
5193.39145814
5196.20007564
5199.18093011
5202.32428437
5205.6178736
5209.04669694
5212.5928681
5216.23554176
5219.95093089
5223.71242702
5227.49083012
5231.25468683
5234.97072757
5238.60438449
5242.12036183
5245.48322302
5248.6579534
5251.6104479
5254.30787044
5256.71878549
5258.81316945
5260.56139921
5261.93835229
5262.91029456
5263.50866685
5263.68337149
5174.92683999
5175.03083472
5175.35332337
5175.8738065
5176.61313172
5177.56032839
5178.71477146
5180.07384356
5181.63740822
5183.40559246
5185.37866451
5187.55649216
5189.93816607
5192.52164117
5195.30339058
5198.27806692
5201.43817182
5204.77374153
5208.27206198
5211.91742944
5215.69097563
5219.57057641
5223.53086198
5227.54334245
5231.57665664
5235.59694283
5239.56832287
5243.45347463
5247.21426264
5250.81238649
5254.20999458
5257.37020517
5260.25747314
5262.8376794
5265.07808325
5266.94606404
5268.41356484
5269.44324836
5270.06852098
5270.24106872
5175.75013015
5175.85987189
5176.19870046
5176.74486827
5177.52026554
5178.51371086
5179.72477922
5181.15107136
5182.79278671
5184.65044543
5186.72474295
5189.01597836
5191.52364956
5194.24606487
5197.17996512
5200.32015103
5203.65911687
5207.18669971
5210.88975891
5214.75190413
5218.75329344
5222.87052316
5227.07663011
5231.34122232
5235.63074687
5239.90889691
5244.13714192
5248.27535953
5252.28253158
5256.11745313
5259.7393984
5263.10867521
5266.18699506
5268.93751261
5271.32470536
5273.31285133
5274.87079176
5275.95742788
5276.60811428
5276.7769589
5176.53988071
5176.65526923
5177.01013471
5177.58148254
5178.39221622
5179.43094605
5180.69745118
5182.18956251
5183.90783052
5185.8531869
5188.02677477
5190.42934695
5193.06083277
5195.9199197
5199.00364338
5202.30698045
5205.82244583
5209.53970454
5213.44521447
5217.5219208
5221.74902582
5226.10185913
5230.55187126
5235.06676886
5239.61080417
5244.14521601
5248.62881168
5253.0186611
5257.27085712
5261.34128829
5265.18635735
5268.76356717
5272.03189022
5274.9517494
5277.48481163
5279.59218286
5281.23946795
5282.38166004
5283.05602307
5283.21964243
5177.28951897
5177.41040905
5177.78087224
5178.37666509
5179.22165426
5180.30423974
5181.62440449
5183.18021904
5184.97259651
5187.00289351
5189.27271501
5191.78328262
5194.53497338
5197.52687186
5200.75632845
5204.21851779
5207.9059995
5211.80829234
5215.91147985
5220.19787045
5224.64573857
5229.22917461
5233.91806933
5238.67825433
5243.4718115
5248.25755144
5252.99164925
5257.62839919
5262.12104275
5266.42260523
5270.48666621
5274.26797504
5277.72281504
5280.80891773
5283.48515809
5285.70945396
5287.444106
5288.64012196
5289.33654071
5289.49367124
5177.99258708
5178.118798
5178.50430085
5179.12358649
5180.00140819
5181.12594809
5182.49738942
5184.11405136
5185.97721876
5188.08868182
5190.45051454
5193.06441381
5195.93121126
5199.05039712
5202.41964771
5206.03435041
5209.88712844
5213.96737775
5218.26083585
5222.74920768
5227.40987809
5232.21574165
5237.13517714
5242.13219407
5247.16676134
5252.19532695
5257.17150426
5262.04689007
5266.77196068
5271.29697176
5275.57277958
5279.55148363
5283.18678122
5286.43380659
5289.24871314
5291.58625797
5293.40537928
5294.653002
5295.36972601
5295.51936285
5178.642822
5178.77415624
5179.17405662
5179.81569421
5180.72459795
5181.88871906
5183.30843864
5184.98233727
5186.91208033
5189.09989622
5191.54832751
5194.25954301
5197.23482488
5200.47406646
5203.97527092
5207.73404433
5211.74308593
5215.99168903
5220.46527395
5225.14498071
5230.00735354
5235.02415044
5240.16230957
5245.38409905
5250.64746972
5255.90661133
5261.1126916
5266.21473691
5271.16059685
5275.89790516
5280.37494983
5284.54134114
5288.34835276
5291.74867882
5294.69588673
5297.1416681
5299.04159652
5300.33844726
5301.07405254
5301.21568828
5179.23423098
5179.37050998
5179.78414471
5180.44685409
5181.38478737
5182.58565076
5184.05003141
5185.77679511
5187.76799965
5190.02631262
5192.55473609
5195.3558959
5198.43150796
5201.7818534
5205.40525121
5209.29752188
5213.45144542
5217.85622821
5222.49700206
5227.35438516
5232.40414083
5237.61696656
5242.9584539
5248.38924276
5253.86539652
5259.3389932
5264.75891837
5270.07180623
5275.22307339
5280.15793628
5284.82232929
5289.16359913
5293.13083181
5296.67452459
5299.7458944
5302.29376899
5304.27043133
5305.61440635
5306.3681953
5306.5019932
5179.76122894
5179.90235886
5180.32914837
5181.01158526
5181.97622816
5183.21053648
5184.71534047
5186.48983704
5188.5364951
5190.8584184
5193.45904878
5196.34144028
5199.50771095
5202.95849945
5206.692416
5210.70547949
5214.99054622
5219.53674567
5224.32894842
5229.34729801
5234.5668456
5239.95732164
5245.4830886
5251.10330358
5256.77231039
5262.4402648
5268.05398332
5273.55793819
5278.8953651
5284.00932671
5288.84368213
5293.34381308
5297.45694315
5301.1317309
5304.3174277
5306.96037475
5309.00978634
5310.399785
5311.17258525
5311.29978256
5180.21849068
5180.36461014
5180.80424661
5181.50510945
5182.49390611
5183.75790009
5185.2982651
5187.11461146
5189.20984622
5191.587499
5194.25141659
5197.20503493
5200.45082455
5203.98973467
5207.82062641
5211.93968735
5216.33983463
5221.01012334
5225.93518683
5231.09474369
5236.46320986
5242.00945751
5247.69676188
5253.48297363
5259.32092393
5265.15907794
5270.94244804
5276.61362649
5282.11398135
5287.38474302
5292.36803858
5297.0076615
5301.24940168
5305.0405889
5308.32912169
5311.05954623
5313.17857732
5314.61579219
5315.41158073
5315.53535156
5180.60187305
5180.75353034
5181.20615428
5181.92424676
5182.93438388
5184.22380235
5185.79421862
5187.64577962
5189.78185909
5192.20638621
5194.92355642
5197.93711939
5201.24982782
5204.86287511
5208.77531489
5212.98345771
5217.48025242
5222.25467174
5227.29112986
5232.56896946
5238.06205508
5243.73852246
5249.56072411
5255.48541233
5261.46415584
5267.44400109
5273.3684791
5279.178635
5284.81435048
5290.21539973
5295.32258656
5300.07857071
5304.4282464
5308.31830489
5311.6962244
5314.5059681
5316.69306098
5318.18271452
5319.01130849
5319.1385834
5180.90678052
5181.06571567
5181.53242083
5182.26680873
5183.29520985
5184.60528872
5186.19966607
5188.0791842
5190.24769679
5192.70947609
5195.46898022
5198.53017883
5201.89601398
5205.56783611
5209.54481411
5213.82331737
5218.39628101
5223.25257403
5228.37639981
5233.74676918
5239.33708163
5245.11486815
5251.04173946
5257.07358302
5263.16100386
5269.24992553
5275.28278511
5281.19946407
5286.93880407
5292.43953581
5297.64160039
5302.4870291
5306.92043083
5310.88869734
5314.3401709
5317.22018766
5319.47583657
5321.02953448
5321.91178312
5322.05795215
5181.13129315
5181.3001096
5181.78199636
5182.53109792
5183.57380159
5184.89894086
5186.51042194
5188.40986301
5190.6015375
5193.08995227
5195.87970928
5198.97488094
5202.37848675
5206.09192928
5210.1143974
5214.44223853
5219.06831276
5223.98135044
5229.16534339
5234.59901074
5240.25537617
5246.10150996
5252.09848125
5258.20156533
5264.36078289
5270.52125176
5276.6247574
5282.6104616
5288.41666549
5293.98150722
5299.24456671
5304.14775308
5308.63596975
5312.65709962
5316.16167492
5319.09874607
5321.42121924
5323.05312084
5324.02077843
5324.2177218
5181.27724082
5181.46295225
5181.96166179
5182.72364748
5183.77642783
5185.11116606
5186.73336245
5188.64534904
5190.85168522
5193.35697194
5196.16582977
5199.28232069
5202.70943556
5206.44852978
5210.49872116
5214.85625634
5219.51385942
5224.46008616
5229.6787129
5235.14820334
5240.84128934
5246.72471985
5252.75921801
5258.89967011
5265.09584699
5271.2924272
5277.43090912
5283.4502761
5289.28864038
5294.88397882
5300.17592125
5305.10661177
5309.62158203
5313.67009419
5317.2056061
5320.18260469
5322.56443356
5324.28468952
5325.37454957
5325.6734184
5181.33796019
5181.54052166
5182.04859259
5182.81648014
5183.87239044
5185.21002512
5186.83559812
5188.75167288
5190.96283065
5193.47363164
5196.28862745
5199.41179908
5202.84604525
5206.5926166
5210.65051196
5215.01584358
5219.68118653
5224.63493448
5229.86069386
5235.3367553
5241.03568619
5246.92408701
5252.96255784
5259.10588986
5265.30380245
5271.50106484
5277.63920753
5283.65727852
5289.49360288
5295.08639091
5300.37557006
5305.30365122
5309.81669423
5313.86483303
5317.40324911
5320.38991551
5322.79650612
5324.57199781
5325.76854865
5326.21157764
4995.79611057
4995.83721051
4995.9350216
4996.0769912
4996.27031806
4996.51054702
4996.79827035
4997.13148326
4997.50886344
4997.92867138
4998.38902063
4998.88780281
4999.42267779
4999.99106165
5000.59012058
5001.21676926
5001.86767357
5002.5392571
5003.22771144
5003.92900916
5004.63892519
5005.35305789
5006.06685272
5006.77562396
5007.47459467
5008.1589349
5008.82379511
5009.46434689
5010.07582441
5010.65356683
5011.19306066
5011.68998074
5012.14022092
5012.53997883
5012.88553339
5013.17407621
5013.40174931
5013.56710228
5013.66937496
5013.70526033
4995.84334435
4995.87846385
4995.97110185
4996.11130682
4996.30414691
4996.54500878
4996.83388046
4997.16865798
4997.54791101
4997.96986509
4998.43261342
4998.9340365
4999.47178564
5000.04326866
5000.64564237
5001.27581028
5001.93042492
5002.60589423
5003.29839175
5004.00387072
5004.71808318
5005.43659902
5006.15483138
5006.86806921
5007.57150555
5008.26027718
5008.92950203
5009.57432049
5010.18993868
5010.77167366
5011.31500058
5011.81560199
5012.26941604
5012.67274512
5013.02213781
5013.31520839
5013.54930554
5013.7239443
5013.83982302
5013.88695367
4995.95639496
4995.98650929
4996.07417267
4996.21189058
4996.40471119
4996.64765643
4996.93999869
4997.2793201
4997.66399536
4998.09216082
4998.56186132
4999.07094725
4999.61704558
5000.19753982
5000.80955927
5001.44997505
5002.11540124
5002.80220062
5003.50649437
5004.22417582
5004.95092847
5005.6822472
5006.41346439
5007.1397806
5007.85629746
5008.55805598
5009.24007703
5009.89740556
5010.52515792
5011.11857324
5011.67307011
5012.1843113
5012.6482789
5013.0614228
5013.42063393
5013.72404038
5013.96991333
5014.1575245
5014.28637475
5014.34061443
4996.12160502
4996.15017744
4996.23546426
4996.37276428
4996.56750546
4996.81460981
4997.11288747
4997.45963568
4997.8530547
4998.29118522
4998.77201629
4999.29335884
4999.85280479
5000.4477006
5001.07513263
5001.73192082
5002.41461829
5003.11951592
5003.84265133
5004.57982217
5005.32660401
5006.07837217
5006.83032862
5007.57753339
5008.3149396
5009.0374334
5009.73987746
5010.41715886
5011.06424125
5011.67622279
5012.24840201
5012.77635562
5013.25603247
5013.68392716
5014.0570882
5014.37386069
5014.63280394
5014.83234721
5014.97069852
5015.02632846
4996.34676808
4996.37500249
4996.46041424
4996.59970483
4996.79877724
4997.05252896
4997.35952865
4997.71687302
4998.12263617
4998.57477797
4999.07123431
4999.60977274
5000.18794194
5000.80303947
5001.45209321
5002.13185241
5002.83878538
5003.56908263
5004.31866487
5005.08319583
5005.85809987
5006.63858451
5007.41966803
5008.19621216
5008.96295945
5009.71457562
5010.44569653
5011.15098006
5011.8251633
5012.46312626
5013.05996484
5013.61107661
5014.11226317
5014.55991087
5014.95099601
5015.28377349
5015.55665415
5015.76723673
5015.91291384
5015.97003458
4996.62726927
4996.656244
4996.74388407
4996.88744545
4997.09322722
4997.35613035
4997.67463379
4998.04571671
4998.46737594
4998.93751138
4999.45401242
5000.01460204
5000.6167796
5001.25778356
5001.93456928
5002.64379722
5003.38182838
5004.14472574
5004.92826095
5005.72792646
5006.53895285
5007.35633183
5008.17484484
5008.98909735
5009.7935587
5010.58260752
5011.35058246
5012.0918384
5012.80080851
5013.47207308
5014.10043766
5014.68102299
5015.20936934
5015.68161492
5016.09448708
5016.4459548
5016.73409599
5016.95583359
5017.10829823
5017.1669461
4996.96381453
4996.99401895
4997.08527124
4997.23491193
4997.44953749
4997.7240174
4998.0567964
4998.44478022
4998.8859173
4999.37806336
4999.91906767
5000.50660901
5001.13813306
5001.8108108
5002.52151255
5003.26679311
5004.04288467
5004.84569612
5005.67081821
5006.51353461
5007.36883897
5008.23145823
5009.0958824
5009.95640069
5010.80714425
5011.64213498
5012.45534057
5013.24073537
5013.99236755
5014.70443297
5015.37135769
5015.98789111
5016.54921079
5017.05109798
5017.48991996
5017.86326503
5018.16884702
5018.4030601
5018.56313564
5018.62394057
4997.35446369
4997.38630831
4997.48226026
4997.63951762
4997.86493767
4998.15332695
4998.50311478
4998.91115445
4999.37536117
4999.89355644
5000.46355395
5001.08298861
5001.74924909
5002.45943171
5003.21031061
5003.99831936
5004.81954096
5005.66970448
5006.54418832
5007.43802997
5008.34594249
5009.26233814
5010.18135939
5011.0969172
5012.00273696
5012.89241132
5013.75946003
5014.59739626
5015.39979937
5016.16039443
5016.8731399
5017.53232461
5018.13267487
5018.66953001
5019.13882482
5019.5377157
5019.86355465
5020.11225809
5020.2813111
5020.34485609
4997.79800785
4997.83180763
4997.93337219
4998.09963178
4998.33769791
4998.64228604
4999.01181088
4999.44308129
4999.93398677
5000.48232124
5001.08586674
5001.7422155
5002.44869712
5003.20232777
5003.99977584
5004.83733963
5005.71093362
5006.61608218
5007.54792029
5008.50120163
5009.47031429
5010.44930451
5011.43190911
5012.41159624
5013.38161479
5014.335052
5015.26489885
5016.16412273
5017.02574693
5017.84293697
5018.60909481
5019.31796159
5019.96372963
5020.54122147
5021.04587955
5021.47438429
5021.82371921
5022.089306
5022.26895133
5022.33585017
4998.29282347
4998.32886938
4998.4368927
4998.61347306
4998.86599129
4999.18905079
4999.58104896
5000.03875317
5000.56003179
5001.14265662
5001.78438224
5002.48276044
5003.23506142
5004.03821743
5004.88878343
5005.78290991
5006.71632496
5007.68432424
5008.68176867
5009.70309027
5010.74230687
5011.79304595
5012.84857827
5013.90186151
5014.94559372
5015.97227644
5016.9742866
5017.94395666
5018.87366227
5019.75591694
5020.58347456
5021.34944008
5022.047389
5022.67155239
5023.21681838
5023.67933767
5024.05569612
5024.34075979
5024.53269424
5024.60353318
4998.83713791
4998.87570972
4998.99101194
4999.17920704
4999.44797038
4999.79177671
5000.20900407
5000.69638017
5001.25175675
5001.8728894
5002.55751076
5003.30313621
5004.10697826
5004.96588375
5005.87628849
5006.83418465
5007.83509762
5008.87407145
5009.94566281
5011.04394426
5012.16251724
5013.29453583
5014.43274192
5015.56951175
5016.69691415
5017.80678
5018.89078173
5019.94052243
5020.94763311
5021.90387764
5022.80126552
5023.63217257
5024.3894701
5025.06671731
5025.65817708
5026.15940257
5026.56653217
5026.87379286
5027.07974789
5027.15509062
4999.42893892
4999.47031388
4999.59370737
4999.79480463
5000.08160631
5000.44844475
5000.89367873
5001.41399888
5002.00724614
5002.67116738
5003.40348075
5004.20167168
5005.06289916
5005.98392559
5006.96106457
5007.99014159
5009.06646484
5010.18480529
5011.33938611
5012.52388239
5013.73143224
5014.9546601
5016.18571343
5017.41631259
5018.63781451
5019.84128921
5021.0176085
5022.1575454
5023.251883
5024.29153143
5025.26765304
5026.17179499
5026.99602987
5027.73315623
5028.37672962
5028.9216236
5029.36346283
5029.69573983
5029.91746731
5029.99785422
5000.06595123
5000.11040648
5000.24270173
5000.45798751
5000.76462359
5001.15678802
5001.63282303
5002.18938632
5002.82431594
5003.53535972
5004.32023146
5005.17639571
5006.10096506
5007.09062151
5008.14155605
5009.24942175
5010.40929747
5011.61566129
5012.86237449