/*--------------------------------*- C++ -*----------------------------------*\
| =========                 |                                                 |
| \\      /  F ield         | foam-extend: Open Source CFD                    |
|  \\    /   O peration     | Version:     4.1                                |
|   \\  /    A nd           | Web:         http://www.foam-extend.org         |
|    \\/     M anipulation  |                                                 |
\*---------------------------------------------------------------------------*/
FoamFile
{
    version     2.0;
    format      ascii;
    class       volScalarField;
    location    "0.1";
    object      pd;
}
// * * * * * * * * * * * * * * * * * * * * * * * * * * * * * * * * * * * * * //

dimensions      [1 -1 -2 0 0 0 0];

internalField   nonuniform List<scalar> 
96000
(
5240.63649639
5240.67398242
5240.76950934
5240.91027415
5241.10305855
5241.34305473
5241.6307445
5241.96404056
5242.34157861
5242.76159224
5243.22217655
5243.72121076
5244.25634621
5244.82499305
5245.42431315
5246.05121796
5246.70237077
5247.37419299
5248.06287447
5248.76438584
5249.47449996
5250.18881512
5250.90277601
5251.61169407
5252.31079126
5252.99523801
5253.6601851
5254.30080543
5254.91233609
5255.49012185
5256.02965919
5256.52664041
5256.9769908
5257.37696454
5257.72295404
5258.01237179
5258.24185392
5258.41076482
5258.52009963
5258.5659654
5240.68033274
5240.7090277
5240.79831
5240.93637334
5241.12852363
5241.36906957
5241.65792108
5241.99279529
5242.37222932
5242.79441265
5243.25742047
5243.7591208
5244.29715704
5244.86893179
5245.47159832
5246.10205762
5246.7569603
5247.43271262
5248.12548664
5248.83123406
5249.54570541
5250.26446971
5250.98293713
5251.69639517
5252.40003498
5253.08899198
5253.75838318
5254.40334889
5255.01909659
5255.60094714
5256.14438354
5256.64510315
5257.09906964
5257.50263689
5257.85243281
5258.14627488
5258.38192968
5258.55967122
5258.68450865
5258.74634543
5240.79125339
5240.81386709
5240.89685928
5241.03188685
5241.22385249
5241.46640763
5241.75870808
5242.09811661
5242.48297447
5242.91137492
5243.38134269
5243.89071446
5244.43710894
5245.01790455
5245.63022744
5246.27094664
5246.93667476
5247.62377332
5248.32836234
5249.04633384
5249.77336986
5250.50496362
5251.23644538
5251.96301347
5252.67976728
5253.3817458
5254.06396821
5254.72147849
5255.34939347
5255.94295493
5256.49758779
5257.00896725
5257.47309562
5257.88646487
5258.24601911
5258.55007104
5258.79737016
5258.98835336
5259.12855662
5259.1994817
5240.95533352
5240.9753492
5241.05537501
5241.18972579
5241.38351922
5241.63015602
5241.92832327
5242.27508782
5242.66861963
5243.10691253
5243.58793357
5244.10947852
5244.6691304
5245.26423037
5245.89186177
5246.54884281
5247.2317256
5247.93680035
5248.66010415
5249.39743409
5250.14436497
5250.89627124
5251.64835363
5252.39567089
5253.13317482
5253.8557504
5254.55825951
5255.23558913
5255.88270409
5256.4947058
5257.06689922
5257.59487263
5258.07459191
5258.50258711
5258.87594444
5259.19319288
5259.45345194
5259.65671444
5259.80827528
5259.88475092
5241.18000388
5241.19948927
5241.27944332
5241.41568111
5241.61375
5241.86697947
5242.17382113
5242.53113811
5242.93697536
5243.3892428
5243.88585227
5244.42455464
5245.00288885
5245.61814672
5246.26735294
5246.94725501
5247.65432033
5248.3847389
5249.13443116
5249.8990605
5250.67405087
5251.45460922
5252.23575308
5253.01234332
5253.77912162
5254.530753
5255.26187298
5255.96713981
5256.64129218
5257.27921371
5257.87600704
5258.42708141
5258.92825505
5259.37594905
5259.76717554
5260.10038295
5260.37460136
5260.58916975
5260.74909969
5260.82839747
5241.46031181
5241.48042317
5241.56250819
5241.70292793
5241.90764847
5242.16997595
5242.488278
5242.85929642
5243.28099826
5243.75123041
5244.2678562
5244.82858048
5245.43089195
5246.07202287
5246.74892512
5247.45825729
5248.19637947
5248.95935423
5249.74295304
5250.54266821
5251.35373016
5252.1711303
5252.98964965
5253.80389319
5254.6083298
5255.39733783
5256.16525602
5256.90644009
5257.61532526
5258.28649599
5258.91476517
5259.49526619
5260.02355739
5260.49581456
5260.90880581
5261.26070707
5261.55025934
5261.77620805
5261.9436381
5262.02536839
5241.79686571
5241.81819784
5241.90385618
5242.05027687
5242.26378998
5242.5376497
5242.87019335
5243.25808504
5243.699242
5244.1914644
5244.73257374
5245.32022946
5245.95186587
5246.62464722
5247.33544013
5248.08079736
5248.85695014
5249.65980692
5250.48495835
5251.32768808
5252.18298974
5253.04559019
5253.90997924
5254.77044594
5255.62112127
5256.45602721
5257.2691319
5258.05441095
5258.80591501
5259.51784457
5260.1846338
5260.80104582
5261.36227822
5261.86415332
5262.30308555
5262.67688074
5262.98394888
5263.22253448
5263.39809734
5263.48258805
5242.18764549
5242.21060975
5242.30094289
5242.45490081
5242.67916132
5242.96689185
5243.31641627
5243.7243415
5244.18854988
5244.70680512
5245.27689169
5245.89642418
5246.56277915
5247.27304584
5248.02399435
5248.8120561
5249.63331297
5250.48349363
5251.35797638
5252.25179878
5253.159674
5254.07601441
5254.9949625
5255.91042935
5256.81614051
5257.70568902
5258.57259548
5259.41037467
5260.21260885
5260.97302824
5261.68560003
5262.34462781
5262.94485964
5263.48167869
5263.95107237
5264.35042103
5264.67780138
5264.93098739
5265.11598799
5265.20380578
5242.63140085
5242.65632137
5242.75225383
5242.91513579
5243.1520004
5243.45589667
5243.8251347
5244.25627215
5244.74716397
5245.29554444
5245.89916512
5246.55559698
5247.26215699
5248.01585377
5248.81335144
5249.65094594
5250.52455058
5251.42968922
5252.36149681
5253.31472716
5254.28376857
5255.26266762
5256.2451614
5257.22471841
5258.19458803
5259.14785825
5260.07752128
5260.97654652
5261.83796057
5262.65493454
5263.42087966
5264.12955251
5264.77516835
5265.35259515
5265.8573318
5266.28628491
5266.63718934
5266.90731948
5267.10334215
5267.19509823
5243.12648072
5243.153648
5243.25602984
5243.42915119
5243.6804277
5244.00276463
5244.39445468
5244.852009
5245.37325973
5245.95591721
5246.59770441
5247.29615102
5248.04851401
5248.85171775
5249.70231259
5250.59644649
5251.52984625
5252.49780701
5253.49518959
5254.51642633
5255.55553539
5256.60614475
5257.66152572
5258.71463664
5259.75817644
5260.78464778
5261.78642924
5262.75585572
5263.68530661
5264.5673014
5265.39460364
5266.16033413
5266.85809193
5267.48215403
5268.02746746
5268.49040825
5268.86833978
5269.15796676
5269.36669352
5269.46298152
5243.67109308
5243.70078721
5243.81044044
5243.99508966
5244.26257063
5244.60562389
5245.02252215
5245.50973153
5246.06506573
5246.68621712
5247.37088553
5248.11656345
5248.92044956
5249.77938239
5250.68979289
5251.64767048
5252.64853913
5253.68744231
5254.7589367
5255.85709518
5256.97551973
5258.10736519
5259.24537428
5260.38192431
5261.50908546
5262.61869015
5263.70241296
5264.75185984
5265.75866597
5266.71460156
5267.61168602
5268.44231117
5269.19937195
5269.87647313
5270.46793789
5270.96954117
5271.37822459
5271.6900286
5271.91317012
5272.01453962
5244.26321207
5244.29571115
5244.41344901
5244.61090639
5244.89638291
5245.2624364
5245.70731932
5246.2274549
5246.82064408
5247.48456861
5248.21691265
5249.01513784
5249.87638876
5250.79741905
5251.77453713
5252.80356551
5253.87981088
5254.99804357
5256.15248678
5257.33681604
5258.54417022
5259.76717491
5260.99797878
5262.22830372
5263.44950842
5264.65266505
5265.8286481
5266.96823402
5268.06221047
5269.10149426
5270.07725778
5270.9810641
5271.80500906
5272.54193563
5273.18546012
5273.7306718
5274.17402281
5274.51077895
5274.75004934
5274.85699546
5244.90055259
5244.93613589
5245.0627698
5245.27431369
5245.57957867
5245.97092392
5246.44658408
5247.00294313
5247.63779701
5248.34882642
5249.13370984
5249.98988712
5250.91445576
5251.90408855
5252.95497093
5254.06275282
5255.22251138
5256.42872404
5257.67525212
5258.95533628
5260.26160474
5261.58609596
5262.92029646
5264.25519464
5265.58135041
5266.88898015
5268.16805596
5269.40841737
5270.59989412
5271.73243813
5272.79626428
5273.78199924
5274.68083632
5275.48475742
5276.18657767
5276.78060262
5277.26271218
5277.62727521
5277.88437912
5277.9973333
5245.58054245
5245.61949073
5245.75583085
5245.98273684
5246.30958126
5246.72851047
5247.23774642
5247.83363951
5248.51399093
5249.27649254
5250.11882998
5251.03843355
5252.03236404
5253.0972205
5254.22906833
5255.42338208
5256.67499971
5257.978088
5259.32611956
5260.71186301
5262.1273879
5263.56408629
5265.01271186
5266.46343772
5267.90593282
5269.32945651
5270.72296958
5272.0752602
5273.37508194
5274.61130235
5275.77306004
5276.84992905
5277.83208766
5278.71054764
5279.47721714
5280.12550729
5280.6506291
5281.04592093
5281.32254163
5281.44186042
5246.30030012
5246.34289449
5246.48974659
5246.73328199
5247.08348604
5247.53227997
5248.07788067
5248.71661299
5249.44629628
5250.26464871
5251.16937915
5252.15792398
5253.22732114
5254.3741068
5255.59423274
5256.88299865
5258.23499669
5259.6440677
5261.10327033
5262.60486491
5264.1403143
5265.70030353
5267.27478027
5268.85301695
5270.42369471
5271.97500869
5273.49479283
5274.97066182
5276.39016705
5277.74096389
5279.01098743
5280.18863408
5281.26294544
5282.22384421
5283.06221509
5283.77045154
5284.34298563
5284.77197948
5285.06976248
5285.19571374
5247.0566172
5247.10313702
5247.26129697
5247.52271202
5247.89803232
5248.37894363
5248.96366785
5249.64851467
5250.43133749
5251.3098989
5252.2819505
5253.34495394
5254.49594203
5255.7314028
5257.04718459
5258.43841658
5259.89944176
5261.42376256
5263.00400063
5264.63187314
5266.29818821
5267.99286255
5269.70496249
5271.42277094
5273.13387968
5274.82530687
5276.48363737
5278.09518306
5279.64615922
5281.12287306
5282.51192048
5283.80038681
5284.97604653
5286.02760508
5286.94479669
5287.71886177
5288.34332934
5288.80902728
5289.12955857
5289.26230528
5247.84594532
5247.89666535
5248.0669119
5248.34742836
5248.74958177
5249.26481422
5249.89136493
5250.62554146
5251.46524983
5252.40831843
5253.4525644
5254.59549766
5255.83416754
5257.16503265
5258.58385234
5260.08559347
5261.66435021
5263.31327744
5265.02453928
5266.78927645
5268.5975954
5270.43858237
5272.30034548
5274.17008631
5276.03420167
5277.8784146
5279.68793244
5281.44762799
5283.14223901
5284.75658092
5286.27576702
5287.68543022
5288.97193949
5290.12264621
5291.12599742
5291.97193321
5292.65294125
5293.1583433
5293.50312204
5293.64270361
5248.66438749
5248.71957462
5248.9026606
5249.20345804
5249.63410234
5250.18578604
5250.85678016
5251.64340552
5252.54364221
5253.55540873
5254.67661407
5255.9048431
5257.23718718
5258.6700986
5260.19926626
5261.8195071
5263.524671
5265.30755947
5267.15986178
5269.07211125
5271.03366658
5273.03272192
5275.05634914
5277.09057448
5279.12049051
5281.13040254
5283.10400643
5285.0245934
5286.87527583
5288.63922692
5290.29992724
5291.84140924
5293.24849114
5294.50702604
5295.60402831
5296.52797905
5297.27017181
5297.81823674
5298.18864251
5298.33495543
5249.50769394
5249.5676035
5249.76424583
5250.08644586
5250.54715758
5251.13732057
5251.85525396
5252.69730973
5253.66156582
5254.74605818
5255.94881707
5257.26753254
5258.69936756
5260.24079509
5261.88745648
5263.63403568
5265.4741466
5267.40023598
5269.40350405
5271.47384846
5273.59983626
5275.76870867
5277.96642303
5280.17773476
5282.38632055
5284.57494171
5286.72564433
5288.81999074
5290.83931472
5292.76499162
5294.57871393
5296.2627605
5297.80024839
5299.17538241
5300.3735913
5301.38172824
5302.18972536
5302.78332241
5303.18057837
5303.33335693
5250.37126376
5250.4361353
5250.64700371
5250.99165217
5251.48390181
5252.11443819
5252.88164652
5253.78192975
5254.81348992
5255.97451008
5257.26317422
5258.67731104
5260.21418821
5261.87033039
5263.64135856
5265.52184456
5267.50517953
5269.58345768
5271.74738002
5273.98618371
5276.28760276
5278.63786632
5281.02173976
5283.42261203
5285.822631
5288.20288571
5290.54363144
5292.82455108
5295.02504331
5297.12452669
5299.10274712
5300.94007389
5302.6177694
5304.11823647
5305.4251598
5306.52358692
5307.40190771
5308.04376014
5308.46889397
5308.62769244
5251.25014835
5251.32020429
5251.54590895
5251.9139568
5252.43908179
5253.11171689
5253.93033252
5254.89140422
5255.99328592
5257.23433973
5258.61293807
5260.12708463
5261.77418806
5263.55085932
5265.45272994
5267.47428501
5269.60870995
5271.84775322
5274.18161068
5276.59883788
5279.08629779
5281.62915118
5284.210896
5286.81346029
5289.41735071
5292.00185553
5294.54529758
5297.02532887
5299.41925559
5301.70437982
5303.85834207
5305.85944583
5307.68694522
5309.32128629
5310.74424829
5311.93888895
5312.89186288
5313.58448475
5314.03828821
5314.20246746
5252.1390741
5252.2145117
5252.45558781
5252.84787007
5253.40704596
5254.12329911
5254.99520492
5256.01933421
5257.19422197
5258.51844258
5259.99059352
5261.60889188
5263.37092609
5265.27343106
5267.31208316
5269.4813098
5271.77411187
5274.18190322
5276.69437292
5279.29937821
5281.98287724
5284.72890992
5287.51963484
5290.33542771
5293.15504409
5295.95584531
5298.71408208
5301.40522607
5304.00433582
5306.48643979
5308.82691722
5311.0018528
5312.98834175
5314.76472079
5316.31070249
5317.60716742
5318.63883237
5319.38445958
5319.86745078
5320.03617077
5253.03245843
5253.11343944
5253.37033546
5253.78755086
5254.38176182
5255.14290754
5256.06968838
5257.15879382
5258.40896944
5259.81903592
5261.38785329
5263.11389173
5264.99496013
5267.02795693
5269.20864061
5271.53141289
5273.98911518
5276.57284197
5279.27177837
5282.07307153
5284.96174596
5287.92067339
5290.9306062
5293.97028145
5297.01659888
5300.04487172
5303.02914414
5305.94256362
5308.75779176
5311.44743275
5313.98445541
5316.34257998
5318.49659933
5320.42259438
5322.09805343
5323.50149283
5324.61548298
5325.41600191
5325.92839154
5326.10061239
5253.92443255
5254.01107745
5254.2841444
5254.72683439
5255.35684307
5256.16387151
5257.14676449
5258.30235346
5259.62962381
5261.12767636
5262.79567114
5264.63237145
5266.63584784
5268.80320335
5271.1303172
5273.61160005
5276.23976194
5279.00559696
5281.89779375
5284.90278267
5288.00463173
5291.18500357
5294.42318454
5297.69619423
5300.97897973
5304.24469354
5307.46504795
5310.61073205
5313.65187153
5316.55850687
5319.30105893
5321.85074892
5324.17993503
5326.26230656
5328.07297829
5329.58792056
5330.78734739
5331.64422314
5332.1858888
5332.36038593
5254.80886926
5254.90126735
5255.19074166
5255.65926934
5256.32558687
5257.17916443
5258.2190093
5259.4421172
5260.84774138
5262.43529538
5264.20427555
5266.15377755
5268.28217423
5270.58681416
5273.06373664
5275.70739729
5278.51040506
5281.46327594
5284.55421393
5287.7689315
5291.09052391
5294.49941168
5297.97336432
5301.48761527
5305.01507338
5308.52663017
5311.99155406
5315.37795594
5318.65330188
5321.78494464
5324.74063679
5327.48898332
5329.99979206
5332.24423946
5334.19492997
5335.82511556
5337.11244621
5338.0266544
5338.59713084
5338.77252484
5255.67943709
5255.77763578
5256.08363127
5256.5781631
5257.2810215
5258.18145343
5259.2786446
5260.56977562
5262.05439349
5263.73225479
5265.60322632
5267.66677304
5269.92160895
5272.36536761
5274.99428703
5277.80290389
5280.78375764
5283.9271111
5287.22069948
5290.64952195
5294.19569229
5297.8383652
5301.55375369
5305.31524932
5309.09365207
5312.85750861
5316.57354935
5320.20720632
5323.72318358
5327.08604425
5330.26077332
5333.21326558
5335.91068565
5338.3215984
5340.4159809
5342.16420994
5343.5411623
5344.51310301
5345.11147261
5345.2861858
5256.52965613
5256.63365333
5256.95614964
5257.47663865
5258.21596576
5259.16316177
5260.31760362
5261.67667492
5263.24023933
5265.00842356
5266.98149552
5269.15932289
5271.54099633
5274.12447084
5276.90621959
5279.88089519
5283.04099927
5286.3765681
5289.87488762
5293.52025417
5297.29379949
5301.1733995
5305.13368441
5309.14616438
5313.17947823
5317.19976426
5321.17114429
5325.05629612
5328.81708404
5332.41520738
5335.81281407
5338.97302235
5341.86028763
5344.44049149
5346.68089382
5348.54887397
5350.01637438
5351.04605677
5351.67132714
5351.8438836
5257.35294708
5257.46269135
5257.80152754
5258.34770118
5259.12310027
5260.11654491
5261.32761201
5262.75390335
5264.39561842
5266.25327708
5268.32757444
5270.61880948
5273.12648011
5275.84889472
5278.7827942
5281.92297927
5285.2619442
5288.78952608
5292.49258429
5296.35472855
5300.35611698
5304.47334591
5308.67945221
5312.94404391
5317.23356813
5321.51171801
5325.73996301
5329.87818068
5333.88535263
5337.72027366
5341.34221747
5344.71149193
5347.78980889
5350.54032402
5352.92751526
5354.91566087
5356.47360133
5357.56023689
5358.21092153
5358.37977504
5258.14269843
5258.25808953
5258.61296257
5259.18431615
5259.99505159
5261.03378068
5262.30028452
5263.79239501
5265.51066272
5267.45601899
5269.62960663
5272.03217834
5274.66366348
5277.5227496
5280.6064724
5283.90980853
5287.42527292
5291.14253059
5295.04803949
5299.12474483
5303.35184894
5307.70468145
5312.15469293
5316.66959003
5321.21362499
5325.74803665
5330.23163231
5334.62148176
5338.87367766
5342.9441083
5346.78917587
5350.36638328
5353.63470338
5356.55456017
5359.08762102
5361.19499224
5362.84227794
5363.98447032
5364.6588324
5364.82246055
5258.89233751
5259.01323023
5259.3837009
5259.97949938
5260.82449021
5261.90707486
5263.22723826
5264.78305192
5266.57542904
5268.60572587
5270.87554705
5273.38611408
5276.13780404
5279.12970158
5282.35915717
5285.82134546
5289.50882609
5293.41111781
5297.51430423
5301.8006938
5306.24856098
5310.83199621
5315.52089026
5320.28107474
5325.07463154
5329.86037128
5334.59446904
5339.23121897
5343.72386239
5348.02542435
5352.08948378
5355.87079017
5359.32562732
5362.41172767
5365.08796691
5367.31226327
5369.04691682
5370.24293405
5370.9393527
5371.09649201
5259.59540654
5259.72162016
5260.10713038
5260.7264215
5261.60424472
5262.72878367
5264.10022354
5265.71688449
5267.58005143
5269.69151422
5272.05334652
5274.66724509
5277.53404159
5280.65322636
5284.02247581
5287.63717733
5291.48995415
5295.57020225
5299.86365917
5304.35202991
5309.01269934
5313.81856205
5318.73799682
5323.73501319
5328.76958003
5333.79814538
5338.77432257
5343.64970834
5348.37477879
5352.89978923
5357.17559551
5361.1542971
5364.78959216
5368.03661533
5370.85152118
5373.18906722
5375.00819098
5376.25581616
5376.97254139
5377.12218676
5260.2456425
5260.3769795
5260.77688714
5261.41853007
5262.32743518
5263.49155519
5264.91127316
5266.58517066
5268.51491313
5270.7027286
5273.15115931
5275.86237393
5278.83765469
5282.07689501
5285.57809816
5289.33687022
5293.34591047
5297.59451223
5302.06809587
5306.74780143
5311.61017318
5316.62696915
5321.76512748
5326.9869163
5332.25028646
5337.50942771
5342.71550777
5347.81755291
5352.76341255
5357.50072015
5361.97776342
5366.14415249
5369.95116177
5373.35148593
5376.29869376
5378.74447723
5380.64440934
5381.94126405
5382.67687182
5382.81851582
5260.83705262
5260.97333445
5261.38697637
5262.04969097
5262.98762552
5264.18848768
5265.65286657
5267.37962897
5269.37083275
5271.62914512
5274.15756784
5276.95872659
5280.03433735
5283.38468134
5287.00807765
5290.90034679
5295.05426881
5299.4590501
5304.09982252
5308.95720429
5314.00695875
5319.21978342
5324.56126984
5329.99205792
5335.46821104
5340.94180723
5346.36173206
5351.67461966
5356.82588651
5361.76074873
5366.42514044
5370.7664083
5374.73363878
5378.27733032
5381.34870063
5383.89657829
5385.87324586
5387.21722639
5387.97101922
5388.10482507
5261.36405173
5261.50518456
5261.93198118
5262.61442323
5263.57906735
5264.8133744
5266.31817654
5268.09267169
5270.13932883
5272.46125136
5275.06188081
5277.94427109
5281.11054029
5284.56132717
5288.29524204
5292.30830382
5296.59336886
5301.13956666
5305.93176782
5310.95011592
5316.16966215
5321.56013697
5327.08590286
5332.70611692
5338.37512296
5344.04307676
5349.65679484
5355.1607494
5360.49817595
5365.612137
5370.44649131
5374.94662061
5379.05974896
5382.73453616
5385.92023433
5388.56318561
5390.61260396
5392.00260967
5392.77541521
5392.90261992
5261.82131446
5261.96743682
5262.40708028
5263.1079482
5264.09674608
5265.36073882
5266.901102
5268.7174469
5270.81268064
5273.19033255
5275.85424909
5278.80786607
5282.05365411
5285.59256247
5289.4234524
5293.54251151
5297.94265696
5302.61294386
5307.5380056
5312.69756082
5318.06602548
5323.61227178
5329.29957494
5335.08578567
5340.92373512
5346.76188848
5352.54525814
5358.21643634
5363.71679105
5368.98755235
5373.97084719
5378.61046901
5382.85220821
5386.64339558
5389.93193087
5392.6623611
5394.78140034
5396.21862365
5397.01441877
5397.13819598
5262.20469749
5262.35635753
5262.80898817
5263.52708548
5264.53722374
5265.82664103
5267.39705556
5269.24861516
5271.38469363
5273.80921983
5276.52638892
5279.53995048
5282.85265725
5286.46570272
5290.37814061
5294.58628149
5299.08307424
5303.85749163
5308.89394787
5314.17178569
5319.66486968
5325.34133559
5331.16353598
5337.08822315
5343.06696585
5349.04681056
5354.97128832
5360.78144425
5366.41715994
5371.81820938
5376.92539618
5381.68138011
5386.03105573
5389.92111548
5393.29903894
5396.10878972
5398.29589197
5399.78555516
5400.61415669
5400.74143611
5262.50960533
5262.66854299
5263.13525426
5263.86964644
5264.89804842
5266.20812609
5267.80250181
5269.68201863
5271.85053027
5274.31230865
5277.07181164
5280.13300881
5283.49884225
5287.17066252
5291.14763854
5295.42613974
5299.99910133
5304.85539229
5309.97921607
5315.34958354
5320.93989426
5326.71767927
5332.64454932
5338.67639191
5344.76381212
5350.85273353
5356.88559324
5362.80227274
5368.54161358
5374.04234631
5379.24441184
5384.08984138
5388.52324446
5392.49151375
5395.9429926
5398.82301768
5401.0786771
5402.63238537
5403.51464226
5403.66081355
5262.73411835
5262.90293701
5263.38482901
5264.13393404
5265.17663811
5266.50177604
5268.11325551
5270.01269534
5272.2043689
5274.69278273
5277.48253854
5280.57770868
5283.9813127
5287.69475325
5291.71721928
5296.04505822
5300.67113023
5305.58416569
5310.76815649
5316.20182185
5321.85818547
5327.70431774
5333.70128783
5339.80437114
5345.96358833
5352.12405729
5358.22756352
5364.21326885
5370.0194743
5375.58431791
5380.8473794
5385.75056785
5390.23878728
5394.25992138
5397.76450336
5400.70158403
5403.02406855
5404.65598116
5405.62364745
5405.82059085
5262.88006645
5263.06578005
5263.56449384
5264.3264821
5265.37926236
5266.71399907
5268.33619383
5270.24817914
5272.45451431
5274.95979997
5277.76865646
5280.88514571
5284.31225862
5288.05135068
5292.10153976
5296.45907256
5301.11667321
5306.06289754
5311.28152197
5316.75101028
5322.44409442
5328.3275234
5334.36202042
5340.50247195
5346.69864873
5352.89522925
5359.03371217
5365.05308077
5370.89144721
5376.48678821
5381.77873352
5386.70942724
5391.22440148
5395.27291915
5398.80843899
5401.78544823
5404.16728918
5405.88755671
5406.97742597
5407.27629212
5262.94079215
5263.14335553
5263.65142904
5264.41931793
5265.47522784
5266.81286128
5268.438433
5270.35450674
5272.56566364
5275.07646368
5277.89145833
5281.01462853
5284.44887306
5288.1954426
5292.25333606
5296.61866572
5301.28400667
5306.23775268
5311.4635102
5316.93956996
5322.6384994
5328.52689906
5334.56536909
5340.70870069
5346.90661329
5353.10387612
5359.24201974
5365.2600922
5371.09641848
5376.68920881
5381.97839055
5386.90647467
5391.41952137
5395.46766522
5399.00608826
5401.99276354
5404.39936383
5406.17486463
5407.37142158
5407.8144452
5240.60452055
5240.64561547
5240.74343913
5240.88541941
5241.07874917
5241.31897626
5241.60669676
5241.93990763
5242.31728673
5242.73709409
5243.19744286
5243.69622452
5244.23109897
5244.79948241
5245.3985411
5246.02518971
5246.67609411
5247.34767785
5248.03613246
5248.73743051
5249.44734692
5250.16148002
5250.8752753
5251.584047
5252.28301819
5252.96735891
5253.6322196
5254.27277185
5254.88424983
5255.46199277
5256.00148735
5256.49840863
5256.9486506
5257.34841072
5257.69396729
5257.98251109
5258.21018405
5258.37553669
5258.47780929
5258.51372208
5240.65174885
5240.68687731
5240.77953236
5240.91974816
5241.11259082
5241.35345092
5241.64232011
5241.97709593
5242.3563481
5242.77830174
5243.24104965
5243.74247225
5244.28022091
5244.85170358
5245.45407711
5246.08424503
5246.73885983
5247.41432939
5248.10682724
5248.81230658
5249.52651945
5250.24503574
5250.96326858
5251.6765069
5252.37994374
5253.06871585
5253.73794114
5254.38276001
5254.99837858
5255.58011398
5256.12344157
5256.62404416
5257.07786005
5257.48119136
5257.83058584
5258.12365675
5258.35775261
5258.53238919
5258.64826447
5258.69541747
5240.76481126
5240.79493895
5240.88262146
5241.02035101
5241.21317485
5241.45611895
5241.74845918
5242.08777921
5242.4724538
5242.90061895
5243.37031914
5243.8794047
5244.42550264
5245.00599661
5245.61801597
5246.25843184
5246.92385826
5247.61065794
5248.31495207
5249.03263392
5249.75938702
5250.49070621
5251.22192389
5251.94824059
5252.66475792
5253.36651689
5254.04853834
5254.7058672
5255.33361984
5255.92703543
5256.4815328
5256.99277501
5257.45674434
5257.86989035
5258.22910292
5258.53250882
5258.77837875
5258.96598497
5259.09482793
5259.14908432
5240.93003103
5240.95861696
5241.04392379
5241.18123645
5241.37598172
5241.6230855
5241.92136148
5242.26810847
5242.66152693
5243.09965722
5243.58048808
5244.10183034
5244.661276
5245.25617164
5245.88360367
5246.54039204
5247.22308982
5247.92798783
5248.65112366
5249.38829496
5250.13507727
5250.88684592
5251.63880287
5252.38600812
5253.12341479
5253.84590901
5254.54835344
5255.22563511
5255.87271767
5256.48469933
5257.05687886
5257.58483333
5258.06451183
5258.4924086
5258.8655709
5259.18234217
5259.44128093
5259.64081713
5259.77915889
5259.8348025
5241.15519609
5241.18344378
5241.26887634
5241.40818053
5241.60725772
5241.86100924
5242.1680074
5242.52535059
5242.93111322
5243.38325485
5243.87971105
5244.41824927
5244.99641827
5245.61151571
5246.26056956
5246.94032903
5247.64726239
5248.37756009
5249.12714281
5249.89167426
5250.6665788
5251.44706394
5252.22814795
5253.00469256
5253.77144029
5254.52305686
5255.2541781
5255.95946186
5256.63364517
5257.2716081
5257.86844679
5258.41955924
5258.92074738
5259.3683972
5259.75948366
5260.09225968
5260.36513516
5260.57570956
5260.72137615
5260.77850964
5241.43569489
5241.46468319
5241.5523449
5241.69592062
5241.90170759
5242.16461068
5242.48311258
5242.85419431
5243.27585304
5243.74598835
5244.26248931
5244.8230788
5245.42525623
5246.0662602
5246.74304612
5247.45227442
5248.19030603
5248.95320389
5249.73673963
5250.53640565
5251.34743255
5252.16481203
5252.98332552
5253.79757848
5254.60204025
5255.39108944
5256.15906469
5256.90032081
5257.60929092
5258.28055534
5258.90891983
5259.48950564
5260.01785343
5260.49010118
5260.90297484
5261.25444125
5261.5425772
5261.76430635
5261.91676025
5261.97542095
5241.77223744
5241.80245601
5241.89373063
5242.04338615
5242.25801711
5242.53249696
5242.86527436
5243.25325695
5243.69439352
5244.18653949
5244.72754379
5245.31508507
5245.94660909
5246.61928694
5247.32998898
5248.07526997
5248.85136205
5249.65417405
5250.47929669
5251.32201363
5252.1773185
5253.03993826
5253.90436288
5254.7648816
5255.61562554
5256.45061663
5257.2638225
5258.04921747
5258.80084961
5259.51291476
5260.17983921
5260.79637287
5261.35769383
5261.85958317
5262.29840682
5262.67175089
5262.97732794
5263.21153276
5263.3715977
5263.43241565
5242.16288539
5242.19474476
5242.29071954
5242.44799199
5242.67341747
5242.96180662
5243.31159275
5243.71963115
5244.18383738
5244.70203262
5245.27203019
5245.89146488
5246.55772542
5247.26790824
5248.01878751
5248.80679678
5249.62801897
5250.47818308
5251.3526675
5252.2465097
5253.15442273
5254.07081886
5254.98984054
5255.90539875
5256.81121886
5257.70089355
5258.56794254
5259.40587893
5260.20828198
5260.96887671
5261.68162178
5262.34080652
5262.94115782
5263.47801501
5263.94731158
5264.34620175
5264.67203613
5264.92073165
5265.08977434
5265.15333227
5242.60642986
5242.64024485
5242.74183255
5242.90810738
5243.14617892
5243.4507668
5243.82028986
5244.25155896
5244.74246396
5245.29079847
5245.89434412
5246.55069299
5247.25717477
5248.01080572
5248.80825425
5249.64581863
5250.51941327
5251.42456246
5252.35640118
5253.30968307
5254.27879623
5255.25778691
5256.24039192
5257.22007941
5258.19009829
5259.14353579
5260.07338291
5260.97260695
5261.83423108
5262.65142076
5263.41757809
5264.12644472
5264.77221359
5265.34970732
5265.85436717
5266.2828714
5266.63220207
5266.89778124
5267.07741651
5267.14432797
5243.1012466
5243.13730802
5243.24535469
5243.42195036
5243.67447394
5243.99753308
5244.38952938
5244.84723224
5245.36851042
5245.95113534
5246.59286119
5247.29123961
5248.04354084
5248.84669725
5249.6972638
5250.59139093
5251.52480668
5252.49280662
5253.49025165
5254.51157379
5255.55079088
5256.60153039
5257.65706308
5258.71034664
5259.75407913
5260.78076211
5261.7827725
5262.75244272
5263.68214827
5264.56440254
5265.39195957
5266.15792478
5266.85587433
5267.48003944
5268.02530715
5268.48782607
5268.86418051
5269.14923682
5269.34116141
5269.41201256
5243.64556229
5243.6841498
5243.7994755
5243.98768595
5244.25645458
5244.60026044
5245.01748583
5245.50486055
5246.06023672
5246.68136954
5247.36599121
5248.11161696
5248.91545936
5249.77436531
5250.68477067
5251.64266754
5252.64358121
5253.68255571
5254.75414766
5255.85242962
5256.97100304
5258.10302201
5259.24122842
5260.37799852
5261.50540114
5262.61526719
5263.69926912
5264.74900995
5265.75612055
5266.71236467
5267.60975188
5268.44065847
5269.19795642
5269.87520519
5270.46666664
5270.96789186
5271.37501767
5271.68227122
5271.88821651
5271.96357112
5244.23736436
5244.27875515
5244.4021722
5244.60328484
5244.89009175
5245.25692959
5245.70216151
5246.22248026
5246.81572715
5247.47964861
5248.21196237
5249.01015369
5249.87138157
5250.79240853
5251.76954817
5252.79862591
5253.87494987
5254.99329096
5256.14787232
5257.33236905
5258.53991928
5259.76314745
5260.99420102
5262.22480038
5263.44630246
5264.6497773
5265.82609674
5266.96603374
5268.06037123
5269.1000192
5270.07614004
5270.98028137
5271.80451647
5272.54164421
5273.18521924
5273.73011308
5274.17194874
5274.50421879
5274.72593663
5274.8063352
5244.87437752
5244.9188487
5245.05116759
5245.26646878
5245.57311002
5245.96527376
5246.44130662
5246.99786848
5247.63279776
5248.34384183
5249.12871402
5249.98487871
5250.90944852
5251.89910552
5252.95004073
5254.05790715